/*--------------------------------*- C++ -*----------------------------------*\
| =========                 |                                                 |
| \\      /  F ield         | OpenFOAM: The Open Source CFD Toolbox           |
|  \\    /   O peration     | Version:  v1906                                 |
|   \\  /    A nd           | Web:      www.OpenFOAM.com                      |
|    \\/     M anipulation  |                                                 |
\*---------------------------------------------------------------------------*/
FoamFile
{
    version     2.0;
    format      ascii;
    class       volScalarField;
    location    "0.2";
    object      k;
}
// * * * * * * * * * * * * * * * * * * * * * * * * * * * * * * * * * * * * * //

dimensions      [0 2 -2 0 0 0 0];


internalField   nonuniform List<scalar> 
80000
(
0.357638
0.282182
0.261625
0.249626
0.240101
0.233192
0.227769
0.223509
0.219974
0.217059
0.21457
0.21245
0.210603
0.208993
0.207569
0.206309
0.205182
0.204171
0.203259
0.202433
0.201681
0.200993
0.200362
0.19978
0.199238
0.19873
0.198249
0.197787
0.197336
0.196887
0.19643
0.195954
0.195445
0.194888
0.194267
0.193564
0.192758
0.191827
0.190745
0.189487
0.188022
0.186322
0.184352
0.182078
0.179462
0.176468
0.17305
0.169173
0.164779
0.15984
0.154272
0.14808
0.141106
0.133462
0.124784
0.115515
0.104682
0.0937196
0.0798748
0.0666492
0.0477438
0.0342058
0.01392
0.00865207
0.0218152
0.327573
0.40962
0.380999
0.359625
0.347555
0.339385
0.333014
0.327911
0.323701
0.32019
0.317204
0.314643
0.312415
0.310465
0.308742
0.307212
0.305844
0.304616
0.303507
0.302502
0.301587
0.300751
0.299984
0.299277
0.298622
0.298011
0.297437
0.296892
0.296368
0.295857
0.295349
0.294835
0.294303
0.293739
0.293131
0.292462
0.291715
0.290872
0.289912
0.288812
0.287549
0.286098
0.28443
0.282518
0.280329
0.277831
0.274989
0.271763
0.268114
0.263993
0.259357
0.254133
0.248286
0.241682
0.234336
0.225924
0.216689
0.205646
0.193937
0.177248
0.16383
0.134836
0.123981
0.0596309
0.0473985
0.19282
0.364451
0.364287
0.345446
0.33438
0.327555
0.322409
0.318234
0.31477
0.311846
0.309349
0.307189
0.305306
0.303647
0.302179
0.300869
0.299697
0.298641
0.297686
0.296819
0.296029
0.295306
0.294643
0.294032
0.293466
0.29294
0.292447
0.291981
0.291537
0.291109
0.29069
0.290273
0.28985
0.289412
0.288951
0.288455
0.287914
0.287315
0.286645
0.285889
0.285033
0.28406
0.282953
0.281694
0.280264
0.278642
0.276809
0.274737
0.272408
0.269784
0.266855
0.263552
0.259901
0.255738
0.25122
0.245883
0.240362
0.23315
0.226656
0.215219
0.209136
0.185841
0.187678
0.119551
0.116868
0.119306
0.325447
0.350721
0.336364
0.326131
0.320162
0.31585
0.312328
0.30938
0.306858
0.304689
0.302797
0.301137
0.299667
0.298361
0.297191
0.296141
0.295192
0.294332
0.29355
0.292836
0.292182
0.291581
0.291027
0.290514
0.290037
0.289592
0.289173
0.288776
0.288396
0.288028
0.287667
0.287306
0.286941
0.286563
0.286165
0.285741
0.28528
0.284774
0.284213
0.283586
0.282882
0.282091
0.281199
0.280195
0.279063
0.277793
0.276364
0.274768
0.272975
0.270988
0.268747
0.266295
0.263479
0.260485
0.256854
0.253281
0.248255
0.244343
0.235834
0.233015
0.213666
0.22078
0.159127
0.166901
0.0721796
0.287299
0.336643
0.328576
0.319654
0.314476
0.310889
0.307952
0.305464
0.303301
0.301421
0.299764
0.298298
0.296992
0.295824
0.294774
0.293827
0.292969
0.292189
0.291478
0.290827
0.290229
0.28968
0.289173
0.288703
0.288267
0.28786
0.287478
0.287117
0.286775
0.286446
0.286126
0.285812
0.285499
0.285181
0.284854
0.284512
0.284148
0.283757
0.283331
0.282864
0.282347
0.281774
0.281135
0.280423
0.279629
0.278744
0.277756
0.276662
0.275437
0.274092
0.272575
0.270937
0.269038
0.267067
0.264603
0.262311
0.258796
0.256487
0.250144
0.249221
0.23319
0.242501
0.188659
0.206098
0.0397858
0.248317
0.320035
0.320114
0.313233
0.308961
0.306101
0.303755
0.301733
0.299934
0.298345
0.296924
0.295655
0.294511
0.293483
0.292551
0.291707
0.290939
0.290237
0.289596
0.289007
0.288465
0.287966
0.287505
0.287077
0.28668
0.286309
0.285962
0.285635
0.285326
0.285032
0.284749
0.284474
0.284204
0.283935
0.283664
0.283387
0.283099
0.282796
0.282474
0.282127
0.281752
0.281343
0.280895
0.280403
0.279861
0.279265
0.278607
0.277887
0.277087
0.276221
0.275247
0.274215
0.273006
0.271797
0.270215
0.268867
0.266515
0.265344
0.260745
0.261087
0.248118
0.25846
0.212674
0.23494
0.0175369
0.208014
0.300047
0.31034
0.306359
0.303201
0.30112
0.299396
0.297863
0.296449
0.295166
0.293994
0.292929
0.291957
0.291074
0.290266
0.289529
0.288854
0.288235
0.287666
0.287141
0.286658
0.286211
0.285796
0.285411
0.285054
0.28472
0.284408
0.284115
0.283839
0.283577
0.283328
0.283089
0.282857
0.282631
0.282407
0.282184
0.281958
0.281727
0.281487
0.281237
0.280973
0.280694
0.280395
0.280074
0.279729
0.279358
0.278956
0.278526
0.278056
0.277562
0.277009
0.276447
0.275776
0.275157
0.274266
0.273646
0.272216
0.271894
0.268722
0.269975
0.259801
0.270599
0.232657
0.2552
0.00163277
0.16716
0.276337
0.298964
0.298788
0.297028
0.295812
0.294755
0.293745
0.292741
0.291786
0.290879
0.290032
0.289243
0.288514
0.287838
0.287215
0.286639
0.286106
0.285614
0.285158
0.284735
0.284343
0.283978
0.283638
0.283322
0.283027
0.282751
0.282492
0.282249
0.28202
0.281803
0.281598
0.281401
0.281213
0.281031
0.280855
0.280681
0.28051
0.280339
0.280168
0.279995
0.279819
0.27964
0.279457
0.279268
0.279076
0.278877
0.278678
0.27847
0.27827
0.278052
0.277863
0.27762
0.277466
0.277126
0.277074
0.276386
0.276713
0.274714
0.276668
0.268996
0.279897
0.249289
0.26944
0.000269402
0.128963
0.24892
0.285542
0.290339
0.29034
0.290108
0.289778
0.28933
0.288768
0.288163
0.287542
0.286929
0.286334
0.28577
0.285235
0.284734
0.284263
0.283823
0.283413
0.283029
0.282671
0.282337
0.282025
0.281733
0.281461
0.281206
0.280968
0.280744
0.280535
0.280339
0.280155
0.279982
0.279819
0.279666
0.279523
0.279387
0.27926
0.27914
0.279028
0.278922
0.278825
0.278735
0.278654
0.278582
0.278521
0.278474
0.278439
0.278426
0.278429
0.278466
0.278517
0.278627
0.278726
0.278944
0.279044
0.279441
0.27935
0.280193
0.279167
0.281716
0.276233
0.287021
0.263045
0.279822
6.38593e-05
0.0957919
0.218429
0.269669
0.280853
0.283051
0.283959
0.284427
0.284588
0.284502
0.284277
0.283962
0.2836
0.283215
0.282827
0.282443
0.282072
0.281714
0.281374
0.281051
0.280744
0.280456
0.280184
0.279928
0.279687
0.279461
0.279249
0.27905
0.278864
0.27869
0.278528
0.278376
0.278235
0.278106
0.277986
0.277878
0.277781
0.277695
0.27762
0.277558
0.277509
0.277475
0.277458
0.277458
0.277479
0.277523
0.277594
0.277694
0.277833
0.278007
0.278236
0.278505
0.278857
0.279232
0.279747
0.280202
0.280953
0.281347
0.282612
0.28242
0.285458
0.281865
0.292464
0.2744
0.287779
4.98622e-05
0.0680067
0.185693
0.250971
0.270039
0.275069
0.277318
0.278671
0.279495
0.279926
0.280109
0.280124
0.280032
0.279872
0.279675
0.279453
0.279221
0.278984
0.27875
0.27852
0.278297
0.278082
0.277877
0.27768
0.277494
0.277318
0.277151
0.276994
0.276847
0.27671
0.276582
0.276464
0.276356
0.276259
0.276172
0.276098
0.276036
0.275988
0.275954
0.275937
0.275937
0.275958
0.276002
0.276072
0.27617
0.276302
0.276471
0.276683
0.276946
0.277261
0.277648
0.278094
0.278641
0.279241
0.279993
0.280732
0.281767
0.282564
0.284188
0.28471
0.288154
0.286225
0.296585
0.283726
0.294157
1.31683e-06
0.0452691
0.152503
0.229303
0.257541
0.266299
0.270135
0.272479
0.274029
0.27502
0.275645
0.276016
0.276215
0.276298
0.276304
0.276255
0.276173
0.276067
0.275946
0.275816
0.275681
0.275546
0.275412
0.275279
0.275151
0.275027
0.274909
0.274796
0.27469
0.274591
0.2745
0.274416
0.274342
0.274277
0.274224
0.274183
0.274155
0.274142
0.274146
0.274169
0.274213
0.274282
0.27438
0.274508
0.274673
0.274878
0.275131
0.275435
0.275802
0.276234
0.276749
0.277341
0.278047
0.278827
0.279769
0.280738
0.282011
0.28315
0.285085
0.28623
0.290004
0.289509
0.299631
0.29129
0.299451
3.42077e-05
0.0272536
0.121002
0.204819
0.24297
0.256508
0.26235
0.265816
0.268162
0.269763
0.270866
0.271622
0.272136
0.272479
0.272705
0.272843
0.272922
0.272954
0.272955
0.272933
0.272893
0.272842
0.272784
0.272719
0.272653
0.272586
0.272518
0.272453
0.27239
0.272332
0.272279
0.272231
0.272191
0.27216
0.27214
0.272131
0.272136
0.272157
0.272196
0.272257
0.272341
0.272454
0.272598
0.272779
0.273
0.273269
0.273592
0.273974
0.274428
0.274957
0.275579
0.276291
0.277125
0.278051
0.279146
0.280305
0.281778
0.283218
0.285421
0.2871
0.291153
0.291873
0.301775
0.297301
0.303948
5.27958e-05
0.0136874
0.0923324
0.177907
0.22599
0.245406
0.253846
0.258639
0.261867
0.264132
0.265755
0.266927
0.26778
0.268405
0.268867
0.269206
0.269457
0.269639
0.26977
0.269863
0.269925
0.269965
0.269987
0.269996
0.269996
0.269988
0.269976
0.26996
0.269944
0.269929
0.269916
0.269906
0.269902
0.269905
0.269918
0.269942
0.26998
0.270034
0.270107
0.270203
0.270324
0.270476
0.270663
0.27089
0.271162
0.271485
0.271868
0.272317
0.272844
0.273455
0.274166
0.274975
0.275915
0.276958
0.278182
0.279504
0.281152
0.282855
0.285286
0.287414
0.291709
0.293449
0.30315
0.301936
0.307796
0.000213472
0.00406441
0.0669012
0.149502
0.206408
0.23265
0.244424
0.250874
0.25511
0.258102
0.26029
0.261913
0.263132
0.264061
0.264778
0.265332
0.265769
0.266111
0.266383
0.266599
0.266769
0.266907
0.267016
0.267103
0.267173
0.26723
0.267276
0.267313
0.267347
0.267377
0.267406
0.267436
0.26747
0.267509
0.267556
0.267614
0.267684
0.267771
0.267877
0.268007
0.268163
0.268352
0.268578
0.268846
0.269162
0.269534
0.26997
0.270477
0.271067
0.271746
0.272531
0.273421
0.274446
0.275589
0.276922
0.278389
0.280191
0.282119
0.284749
0.28725
0.291754
0.294349
0.303869
0.305351
0.31105
0.000599055
0.000955299
0.0450964
0.121244
0.184255
0.217896
0.233832
0.242384
0.247831
0.251644
0.254446
0.256558
0.258175
0.259432
0.260422
0.26121
0.261846
0.262361
0.262783
0.263131
0.263419
0.26366
0.263863
0.264033
0.264179
0.264304
0.264412
0.264507
0.264593
0.264672
0.264746
0.264817
0.26489
0.264967
0.26505
0.265142
0.265246
0.265365
0.265504
0.265667
0.265857
0.266081
0.266343
0.266649
0.267007
0.267422
0.267905
0.268462
0.269106
0.269844
0.270691
0.271649
0.272746
0.273976
0.275407
0.277003
0.278939
0.281058
0.283862
0.286676
0.291357
0.294667
0.304025
0.307685
0.313714
0.000809085
0.000249486
0.0274154
0.0945229
0.159806
0.200858
0.221775
0.232982
0.239922
0.244701
0.248198
0.25084
0.252888
0.254499
0.255785
0.256824
0.257674
0.258375
0.258959
0.259449
0.259862
0.260216
0.260518
0.260777
0.261004
0.261203
0.261377
0.261533
0.261675
0.261806
0.261927
0.262044
0.262158
0.262274
0.262394
0.262522
0.26266
0.262813
0.262985
0.263181
0.263404
0.263662
0.263959
0.264301
0.264696
0.265152
0.265676
0.266278
0.26697
0.267758
0.268659
0.269675
0.270838
0.272146
0.273666
0.275375
0.277429
0.279711
0.282666
0.285744
0.290577
0.294482
0.303698
0.309072
0.315772
0.000892519
7.5711e-07
0.0140393
0.070092
0.133993
0.181406
0.207942
0.222436
0.231232
0.237176
0.241485
0.244732
0.247249
0.249242
0.250849
0.252158
0.25324
0.25414
0.254899
0.255541
0.25609
0.256563
0.256971
0.257327
0.257641
0.257918
0.258164
0.258385
0.258587
0.258772
0.258944
0.259108
0.259266
0.259424
0.259583
0.259748
0.259922
0.260109
0.260315
0.260544
0.260801
0.261092
0.261422
0.261799
0.26223
0.262723
0.263286
0.263929
0.264664
0.265497
0.266444
0.267514
0.268738
0.270119
0.271719
0.273529
0.275687
0.27811
0.281198
0.2845
0.28946
0.293859
0.302954
0.309636
0.317213
0.000915538
9.87681e-05
0.00474514
0.0482728
0.108285
0.159667
0.192045
0.210483
0.22158
0.228942
0.234215
0.238168
0.241222
0.243641
0.245593
0.247194
0.248526
0.249642
0.250587
0.251394
0.252087
0.252689
0.253212
0.253671
0.254078
0.254439
0.254761
0.255052
0.255318
0.255562
0.255789
0.256003
0.256208
0.256409
0.25661
0.256814
0.257025
0.257249
0.257489
0.257752
0.258042
0.258367
0.258731
0.259142
0.259607
0.260135
0.260736
0.261417
0.26219
0.263065
0.264057
0.265178
0.266459
0.267909
0.269583
0.271482
0.273734
0.276279
0.279483
0.282979
0.288046
0.292853
0.301847
0.309493
0.318037
0.000889801
0.000411541
0.000283967
0.0297617
0.0839029
0.13605
0.1739
0.196835
0.210745
0.219845
0.226276
0.231061
0.234742
0.237649
0.239992
0.241913
0.243513
0.244862
0.246009
0.246992
0.247842
0.248582
0.249228
0.249798
0.250305
0.250756
0.25116
0.251526
0.25186
0.252167
0.252452
0.252719
0.252975
0.253223
0.253467
0.253712
0.253963
0.254224
0.254501
0.254798
0.255123
0.255482
0.25588
0.256325
0.256824
0.257387
0.258023
0.25874
0.259551
0.260466
0.261504
0.262675
0.264011
0.265524
0.267267
0.269247
0.271584
0.274238
0.277547
0.281209
0.286369
0.29151
0.300422
0.308747
0.318261
0.000857797
0.000625165
3.24143e-05
0.015545
0.0612637
0.111797
0.15356
0.181225
0.198474
0.209699
0.217529
0.223302
0.227719
0.231195
0.23399
0.236277
0.23818
0.239782
0.241146
0.24232
0.243337
0.244226
0.245005
0.245694
0.246308
0.246855
0.247348
0.247794
0.248202
0.248576
0.248922
0.249247
0.249556
0.249854
0.250145
0.250434
0.250726
0.251027
0.251342
0.251676
0.252037
0.25243
0.252863
0.253342
0.253877
0.254474
0.255145
0.255899
0.256748
0.257705
0.258788
0.260009
0.261398
0.262971
0.264779
0.266834
0.26925
0.272003
0.275405
0.279212
0.284452
0.289865
0.298712
0.30749
0.317912
0.000838633
0.000696065
9.89925e-05
0.00573689
0.040798
0.0883005
0.131378
0.16349
0.184497
0.198284
0.207814
0.214768
0.220053
0.224193
0.227514
0.230225
0.232477
0.234368
0.235977
0.237359
0.238557
0.239605
0.240527
0.241344
0.242073
0.242725
0.243312
0.243844
0.24433
0.244777
0.24519
0.245576
0.245942
0.246293
0.246634
0.24697
0.247306
0.247649
0.248004
0.248377
0.248776
0.249206
0.249675
0.25019
0.250759
0.251393
0.2521
0.252892
0.253782
0.254782
0.255911
0.257181
0.258623
0.260253
0.262123
0.264248
0.26674
0.269583
0.273071
0.277006
0.282316
0.287951
0.296744
0.305801
0.317029
0.000833896
0.000677622
0.000341716
0.000252791
0.0235008
0.0660258
0.108438
0.143706
0.16858
0.185352
0.196935
0.20531
0.211625
0.216546
0.220479
0.223683
0.226338
0.228563
0.230453
0.232073
0.233476
0.234701
0.235779
0.236734
0.237585
0.238349
0.239038
0.239663
0.240233
0.240757
0.241242
0.241694
0.242122
0.242529
0.242923
0.243309
0.243692
0.24408
0.244478
0.244893
0.245331
0.2458
0.246307
0.246859
0.247467
0.248138
0.248885
0.249718
0.250651
0.251696
0.25287
0.25419
0.255683
0.25737
0.2593
0.261494
0.264057
0.266986
0.270554
0.274604
0.279977
0.28579
0.29454
0.303747
0.315652
0.000836283
0.000642808
0.000514483
1.00311e-05
0.0107893
0.0452956
0.0860249
0.122265
0.150632
0.170666
0.184663
0.194746
0.202294
0.208137
0.212787
0.216564
0.219686
0.222299
0.224513
0.226408
0.228046
0.229475
0.230729
0.231838
0.232827
0.233712
0.234511
0.235235
0.235896
0.236503
0.237064
0.237588
0.238081
0.238549
0.239
0.239439
0.239874
0.24031
0.240754
0.241212
0.241693
0.242203
0.242751
0.243344
0.243992
0.244705
0.245495
0.246372
0.247349
0.248439
0.249661
0.25103
0.252576
0.25432
0.25631
0.258571
0.261204
0.264215
0.267859
0.272012
0.277443
0.283402
0.292113
0.301382
0.313824
0.000839395
0.000623238
0.000565756
2.03463e-05
0.0026091
0.0270029
0.0645094
0.100286
0.130852
0.154075
0.170767
0.182864
0.191886
0.198829
0.204325
0.208772
0.212436
0.215497
0.218086
0.220299
0.222208
0.223871
0.225328
0.226615
0.227761
0.228784
0.229706
0.230541
0.231302
0.231999
0.232643
0.233243
0.233806
0.23434
0.234852
0.235349
0.235838
0.236326
0.236819
0.237326
0.237852
0.238407
0.238999
0.239637
0.24033
0.241088
0.241922
0.242844
0.243867
0.245004
0.246275
0.247696
0.249295
0.251097
0.253148
0.255477
0.258179
0.261269
0.264989
0.269237
0.274722
0.2808
0.289475
0.298745
0.31159
0.000840654
0.000621577
0.000535947
0.000323523
0.00059734
0.0128949
0.0441404
0.0790118
0.109959
0.135626
0.155066
0.169442
0.180202
0.188456
0.194957
0.200193
0.204491
0.208071
0.211093
0.213671
0.215893
0.217826
0.219517
0.221008
0.222335
0.223517
0.22458
0.225542
0.226417
0.227217
0.227954
0.228639
0.22928
0.229886
0.230465
0.231025
0.231573
0.232116
0.232663
0.233221
0.233798
0.234402
0.235042
0.235727
0.236467
0.237272
0.238153
0.239122
0.240193
0.24138
0.242701
0.244175
0.245831
0.247693
0.249808
0.252204
0.254978
0.258147
0.26194
0.26628
0.271816
0.277994
0.286633
0.295869
0.308992
0.000840483
0.000626389
0.000504523
0.000446134
1.87502e-05
0.00377869
0.0259458
0.0583569
0.0890374
0.115701
0.137536
0.154303
0.167033
0.176825
0.184517
0.190689
0.195733
0.199919
0.203443
0.206444
0.209026
0.211268
0.213229
0.214956
0.216489
0.217855
0.219081
0.220188
0.221194
0.222111
0.222955
0.223737
0.224467
0.225155
0.22581
0.226439
0.227052
0.227658
0.228264
0.228878
0.229509
0.230166
0.230858
0.231593
0.232383
0.233238
0.234169
0.235188
0.23631
0.237549
0.238925
0.240456
0.242172
0.244097
0.246278
0.248746
0.251592
0.254841
0.258709
0.263136
0.268724
0.274987
0.283591
0.292772
0.30607
0.000840023
0.000629558
0.000495386
0.000443923
0.000260887
0.000425736
0.0118469
0.0385794
0.0686309
0.0952977
0.118478
0.137408
0.152213
0.163739
0.172821
0.180095
0.186019
0.190919
0.195031
0.198524
0.201522
0.204122
0.206392
0.208388
0.210158
0.211735
0.213147
0.214421
0.215576
0.216629
0.217595
0.218488
0.21932
0.220102
0.220843
0.221552
0.22224
0.222915
0.223586
0.224263
0.224955
0.22567
0.226418
0.227209
0.228053
0.228961
0.229946
0.23102
0.232197
0.233493
0.234928
0.236521
0.2383
0.240293
0.242545
0.245088
0.248011
0.251343
0.255288
0.259802
0.265441
0.271781
0.280349
0.289468
0.302855
0.000839802
0.000630119
0.000497667
0.000419677
0.000378534
0.000140389
0.00301589
0.0211274
0.0486309
0.0754233
0.0987531
0.119009
0.135707
0.149048
0.159682
0.168227
0.175181
0.180921
0.185725
0.189796
0.193281
0.196294
0.198921
0.201229
0.203271
0.205088
0.206714
0.208179
0.209506
0.210713
0.211819
0.212839
0.213787
0.214676
0.215515
0.216316
0.217088
0.217843
0.218589
0.219337
0.220096
0.220876
0.221687
0.222539
0.223443
0.224411
0.225456
0.22659
0.227828
0.229187
0.230687
0.232347
0.234197
0.236263
0.238591
0.241215
0.24422
0.247639
0.251665
0.256268
0.261961
0.268372
0.276904
0.285962
0.299369
0.000839779
0.000629803
0.000499988
0.000412487
0.000379752
0.000252969
0.000105
0.00831404
0.0297106
0.0557313
0.0793235
0.0998487
0.117757
0.132737
0.144971
0.154913
0.16304
0.169758
0.175373
0.180121
0.184177
0.187675
0.190719
0.193387
0.195744
0.197838
0.19971
0.201393
0.202915
0.2043
0.205566
0.206731
0.207812
0.208821
0.209773
0.210678
0.211547
0.212392
0.213224
0.214052
0.214888
0.215741
0.216623
0.217545
0.218517
0.219553
0.220665
0.221866
0.223173
0.224603
0.226174
0.22791
0.229837
0.231984
0.234395
0.237106
0.2402
0.243712
0.247824
0.252519
0.258272
0.264753
0.273251
0.282253
0.295628
0.0008398
0.000629627
0.0005002
0.00041507
0.000357514
0.000349759
3.18429e-05
0.00111055
0.0137755
0.0363169
0.0600104
0.0808422
0.0990478
0.115063
0.1287
0.140048
0.149445
0.15726
0.163807
0.169342
0.174065
0.178132
0.181664
0.184753
0.187477
0.189892
0.192048
0.193983
0.195731
0.197317
0.198766
0.200098
0.20133
0.202479
0.203558
0.204581
0.205561
0.20651
0.207438
0.208358
0.209282
0.210219
0.211182
0.212183
0.213233
0.214346
0.215534
0.216812
0.218197
0.219705
0.221358
0.223177
0.225191
0.227427
0.229931
0.232738
0.235928
0.239541
0.243748
0.248541
0.254358
0.260911
0.26938
0.278336
0.291643
0.000839807
0.000629628
0.000499889
0.000416669
0.000354241
0.0003347
0.000246041
0.000124557
0.00371635
0.0188927
0.0406598
0.0619224
0.0804544
0.0967167
0.111167
0.123704
0.134337
0.143305
0.150873
0.157297
0.162786
0.167512
0.171612
0.175194
0.178347
0.181138
0.183624
0.185853
0.187861
0.189682
0.191342
0.192865
0.194271
0.195578
0.196804
0.197963
0.199069
0.200135
0.201175
0.2022
0.203224
0.204257
0.205313
0.206404
0.207543
0.208743
0.210019
0.211385
0.212858
0.214457
0.216201
0.218114
0.220225
0.222561
0.225167
0.228081
0.231378
0.235101
0.239411
0.24431
0.2502
0.256831
0.265278
0.274199
0.287418
0.000839805
0.000629646
0.000499816
0.000416458
0.000357406
0.000316905
0.000300154
0.000189915
9.76298e-05
0.00637766
0.022515
0.0427828
0.061901
0.0785308
0.0931148
0.106272
0.117871
0.127892
0.136488
0.143858
0.150191
0.155661
0.16041
0.164561
0.168212
0.17144
0.174313
0.176884
0.179197
0.18129
0.183195
0.18494
0.186547
0.188038
0.189433
0.190748
0.191999
0.193201
0.194368
0.195514
0.196652
0.197796
0.198959
0.200153
0.201394
0.202695
0.20407
0.205536
0.20711
0.208811
0.21066
0.21268
0.214899
0.217348
0.220069
0.2231
0.226516
0.230361
0.234785
0.239801
0.245774
0.252493
0.260927
0.269827
0.282952
0.000839804
0.000629641
0.00049986
0.000416125
0.000358575
0.000315557
0.000287361
0.000271215
9.6406e-05
0.000460965
0.00819655
0.0242824
0.0429895
0.0603016
0.0753305
0.0885537
0.100535
0.111265
0.120732
0.129002
0.136194
0.142456
0.147918
0.152707
0.156923
0.160653
0.163972
0.16694
0.169607
0.172018
0.174209
0.176212
0.178053
0.179759
0.181349
0.182845
0.184264
0.185623
0.186937
0.188222
0.189493
0.190764
0.19205
0.193364
0.194722
0.196138
0.197628
0.199209
0.200899
0.202717
0.204684
0.206825
0.209167
0.211743
0.214593
0.217757
0.221305
0.225285
0.229837
0.234982
0.241052
0.24787
0.256306
0.265199
0.278239
0.000839803
0.000629632
0.000499884
0.000416052
0.000358536
0.000316583
0.000283747
0.000265247
0.00024193
3.90586e-05
0.000950584
0.00915822
0.0244408
0.0415794
0.0573813
0.0710405
0.0831241
0.0940313
0.103981
0.112924
0.12086
0.127876
0.13406
0.139522
0.144351
0.148637
0.152458
0.155877
0.158949
0.161726
0.164248
0.16655
0.168664
0.170618
0.172438
0.174145
0.175759
0.1773
0.178786
0.180233
0.181658
0.183077
0.184505
0.185957
0.187451
0.189001
0.190624
0.192337
0.19416
0.196111
0.198214
0.200493
0.202976
0.205695
0.20869
0.212004
0.215701
0.219833
0.224529
0.229818
0.236
0.242931
0.251386
0.26029
0.273261
0.000839803
0.000629627
0.000499882
0.000416057
0.000358457
0.000316674
0.000284701
0.000259107
0.000246991
0.000211567
2.31202e-05
0.00129238
0.00913984
0.0231383
0.0387956
0.0532125
0.0658025
0.0769467
0.0869629
0.0961372
0.10452
0.112106
0.118912
0.125005
0.130441
0.135304
0.13966
0.143567
0.147088
0.150276
0.153172
0.155815
0.158241
0.160482
0.162566
0.164518
0.166359
0.168112
0.169797
0.171433
0.173037
0.174628
0.176222
0.177836
0.179488
0.181193
0.18297
0.184837
0.186814
0.188921
0.19118
0.193617
0.196261
0.199144
0.202305
0.205787
0.209652
0.213955
0.218813
0.224266
0.230579
0.237641
0.246136
0.25507
0.267998
0.000839802
0.000629623
0.000499876
0.000416057
0.000358449
0.000316606
0.000284913
0.000259599
0.000239714
0.000230321
0.000180715
9.62794e-05
0.00131859
0.00813465
0.0205629
0.0347365
0.0479929
0.059763
0.0701014
0.0793862
0.0878384
0.0956421
0.10282
0.10937
0.115309
0.120692
0.125557
0.129953
0.13394
0.137564
0.140863
0.143879
0.146652
0.149216
0.151599
0.153828
0.155928
0.157924
0.159839
0.161694
0.163507
0.165297
0.167084
0.168886
0.170721
0.172608
0.174565
0.176612
0.178767
0.181054
0.183495
0.186116
0.188945
0.192016
0.195367
0.199042
0.203099
0.207596
0.212639
0.218277
0.224742
0.231956
0.240517
0.249501
0.262419
0.000839801
0.00062962
0.00049987
0.000416052
0.000358447
0.000316597
0.000284839
0.000259985
0.000239296
0.000224707
0.000209379
0.000198702
2.30582e-05
0.000836066
0.00626418
0.0168739
0.0295853
0.0418756
0.0528945
0.0626265
0.0713197
0.0792047
0.0864348
0.0931286
0.0993495
0.105072
0.110326
0.115139
0.119548
0.123583
0.127279
0.130676
0.133813
0.136719
0.139423
0.141953
0.14434
0.146608
0.148782
0.150883
0.152932
0.15495
0.156959
0.158978
0.161026
0.163123
0.165289
0.167544
0.169908
0.172405
0.175057
0.177892
0.180937
0.184227
0.187797
0.191694
0.195972
0.200691
0.205946
0.211795
0.218438
0.225829
0.234484
0.243544
0.256489
0.0008398
0.000629616
0.000499865
0.000416046
0.000358441
0.000316595
0.000284821
0.00025994
0.000239724
0.000223377
0.000209211
0.000202317
0.000171881
1.90815e-05
0.000388587
0.00405539
0.0124368
0.0235584
0.0348863
0.0452468
0.0545155
0.0627587
0.0701886
0.0769739
0.083232
0.089012
0.094437
0.099495
0.104181
0.108523
0.112546
0.116279
0.119751
0.122982
0.126
0.128836
0.131519
0.134074
0.136523
0.138889
0.141195
0.143464
0.145719
0.147982
0.15027
0.152607
0.155011
0.157505
0.16011
0.162851
0.165749
0.168832
0.172128
0.175672
0.179498
0.183653
0.188187
0.193162
0.198662
0.204755
0.211608
0.219206
0.227987
0.23715
0.250163
0.000839799
0.000629612
0.000499859
0.00041604
0.000358435
0.000316589
0.000284823
0.000259897
0.000239813
0.000223288
0.000209432
0.000197594
0.000191713
0.000169779
5.85012e-05
0.000106733
0.00204296
0.00784173
0.0169291
0.0271187
0.0368793
0.0457012
0.0536278
0.0607556
0.0671994
0.073118
0.0785788
0.0836603
0.08839
0.0928585
0.0970649
0.101009
0.104708
0.108183
0.111459
0.11456
0.117512
0.120332
0.123043
0.125669
0.128233
0.130762
0.133276
0.135796
0.138343
0.140939
0.143606
0.146367
0.149243
0.152259
0.155438
0.158808
0.162395
0.166233
0.170357
0.174813
0.179645
0.184919
0.190706
0.197081
0.204183
0.212022
0.22097
0.230267
0.243394
0.000839798
0.000629608
0.000499854
0.000416033
0.000358429
0.000316582
0.00028482
0.000259887
0.000239808
0.000223284
0.000209511
0.000197641
0.000187878
0.000182118
0.000169649
0.000100661
2.01956e-05
0.000703716
0.00387825
0.0103067
0.0188444
0.0278015
0.036222
0.0438581
0.0507473
0.0570319
0.062711
0.0679208
0.0727571
0.0772573
0.0814768
0.0854442
0.0891922
0.0927762
0.096196
0.0994603
0.102584
0.105591
0.108502
0.111341
0.114129
0.116888
0.119639
0.122402
0.125198
0.128053
0.13099
0.13403
0.137195
0.14051
0.143997
0.147686
0.151601
0.155777
0.160243
0.165047
0.170228
0.175851
0.181974
0.188682
0.19608
0.204204
0.213363
0.222833
0.236126
0.000839796
0.000629604
0.000499848
0.000416027
0.000358422
0.000316576
0.000284813
0.000259882
0.000239799
0.000223284
0.000209483
0.000197785
0.000187649
0.000179138
0.000173402
0.000166658
0.000131644
4.73681e-05
0.000133342
0.00130093
0.00478072
0.0107871
0.0183023
0.0260893
0.0334266
0.0401477
0.0462463
0.0518066
0.056934
0.0616195
0.065951
0.0700026
0.0738129
0.0774131
0.0808382
0.0841136
0.0872566
0.0903245
0.0933305
0.0962843
0.0992024
0.102104
0.105014
0.107955
0.110949
0.114021
0.117192
0.120486
0.123924
0.127532
0.131333
0.135355
0.139622
0.144167
0.149016
0.154215
0.159796
0.165824
0.172344
0.179442
0.187196
0.19566
0.205087
0.214775
0.228293
0.000839795
0.0006296
0.000499842
0.00041602
0.000358416
0.000316569
0.000284807
0.000259876
0.000239792
0.000223279
0.000209473
0.000197776
0.00018774
0.000178995
0.000171448
0.000165763
0.000161186
0.000146818
9.80628e-05
3.71868e-05
0.00023286
0.00141827
0.00442961
0.00942364
0.0157196
0.0224141
0.0288719
0.0348416
0.0403266
0.0453554
0.0499856
0.0542858
0.058299
0.062028
0.0655365
0.0688746
0.0720772
0.0751611
0.0781619
0.0811069
0.0840201
0.0869224
0.0898711
0.0928804
0.0959666
0.0991498
0.102459
0.105919
0.109556
0.113396
0.117464
0.121788
0.12639
0.131304
0.136551
0.142175
0.148199
0.154687
0.161664
0.169221
0.177401
0.186274
0.19604
0.206005
0.219818
0.000839794
0.000629596
0.000499836
0.000416014
0.000358409
0.000316562
0.0002848
0.00025987
0.000239786
0.000223273
0.000209468
0.000197767
0.000187735
0.000179045
0.000171424
0.00016473
0.000159215
0.000155088
0.000149304
0.000130143
8.27722e-05
4.0237e-05
0.000201482
0.00104431
0.00315186
0.00678827
0.0116743
0.0172022
0.0228153
0.028175
0.0331567
0.0377668
0.0420549
0.0460505
0.0497948
0.0533327
0.0567111
0.0599205
0.0630018
0.0660009
0.0689548
0.0718933
0.0748323
0.0778108
0.0808598
0.0840048
0.0872988
0.0907826
0.0944784
0.0984133
0.102622
0.10714
0.11199
0.117206
0.122808
0.12884
0.135313
0.142289
0.149772
0.157853
0.166535
0.175899
0.186091
0.196408
0.210607
0.000839793
0.000629591
0.00049983
0.000416007
0.000358402
0.000316556
0.000284794
0.000259863
0.00023978
0.000223267
0.000209463
0.000197761
0.000187728
0.00017904
0.00017145
0.000164756
0.000158815
0.00015365
0.000149488
0.000145968
0.000139684
0.000121887
8.34203e-05
4.23638e-05
0.000100434
0.000507238
0.00163411
0.00379267
0.00703883
0.0111356
0.0156935
0.0203524
0.0248811
0.0291706
0.0331984
0.0369882
0.0405856
0.0440156
0.0473052
0.0504891
0.053603
0.0566848
0.0597246
0.0627638
0.0658468
0.0690137
0.0722879
0.0757075
0.0793187
0.0831643
0.0873287
0.0918511
0.0967633
0.102114
0.107935
0.114267
0.121117
0.128544
0.136536
0.145173
0.154421
0.164356
0.175073
0.185837
0.200539
0.000839792
0.000629587
0.000499824
0.000416
0.000358395
0.000316549
0.000284787
0.000259856
0.000239774
0.000223261
0.000209457
0.000197756
0.000187722
0.000179033
0.000171444
0.000164765
0.000158843
0.000153555
0.00014884
0.000144762
0.000141427
0.000138375
0.000133237
0.000120599
9.3969e-05
5.5795e-05
4.01174e-05
0.000142295
0.000538865
0.00145605
0.00308193
0.00547719
0.00854846
0.0120945
0.0158867
0.0197351
0.0235213
0.0271878
0.0307202
0.0341326
0.0374531
0.0407202
0.0439548
0.0471824
0.050435
0.0537542
0.0571471
0.0606377
0.064277
0.0681188
0.072193
0.0765671
0.0813255
0.0865776
0.0923696
0.0987694
0.105801
0.113532
0.121934
0.131081
0.140903
0.15146
0.162791
0.174103
0.189456
0.00083979
0.000629582
0.000499817
0.000415993
0.000358387
0.000316541
0.00028478
0.00025985
0.000239767
0.000223255
0.00020945
0.00019775
0.000187717
0.000179028
0.000171438
0.000164759
0.000158842
0.000153569
0.00014884
0.00014458
0.000140764
0.000137436
0.000134644
0.000132135
0.000128736
0.000121688
0.000106857
8.10369e-05
4.84098e-05
3.15545e-05
8.40612e-05
0.000299738
0.000805496
0.00173163
0.00317192
0.00515289
0.00762886
0.0105015
0.0136514
0.016967
0.0203638
0.0237922
0.0272304
0.030677
0.0341458
0.0376658
0.0412627
0.044961
0.0487933
0.0528046
0.0569877
0.0614054
0.0661224
0.0712127
0.0767618
0.0829611
0.089878
0.0976169
0.106177
0.11565
0.125935
0.137074
0.149056
0.160992
0.177153
0.000839789
0.000629578
0.000499811
0.000415985
0.00035838
0.000316534
0.000284773
0.000259843
0.000239761
0.000223248
0.000209444
0.000197744
0.000187711
0.000179022
0.000171433
0.000164753
0.000158836
0.000153564
0.000148842
0.000144591
0.000140745
0.000137256
0.000134104
0.000131308
0.000128901
0.00012682
0.000124667
0.000121383
0.000114986
0.00010275
8.21745e-05
5.34696e-05
2.40462e-05
1.41861e-05
6.2887e-05
0.000232006
0.000602389
0.00126327
0.00229563
0.0037547
0.00566001
0.00799557
0.0107176
0.0137682
0.0170879
0.0206283
0.0243558
0.0282531
0.0323171
0.0365671