/*--------------------------------*- C++ -*----------------------------------*\
| =========                 |                                                 |
| \\      /  F ield         | OpenFOAM: The Open Source CFD Toolbox           |
|  \\    /   O peration     | Version:  v1906                                 |
|   \\  /    A nd           | Web:      www.OpenFOAM.com                      |
|    \\/     M anipulation  |                                                 |
\*---------------------------------------------------------------------------*/
FoamFile
{
    version     2.0;
    format      ascii;
    class       volScalarField;
    location    "0.2";
    object      p;
}
// * * * * * * * * * * * * * * * * * * * * * * * * * * * * * * * * * * * * * //

dimensions      [1 -1 -2 0 0 0 0];


internalField   nonuniform List<scalar> 
80000
(
72823.2
72315.4
72372.4
72154.1
72111.4
71965
71900.1
71792.3
71722.3
71636.4
71568.5
71496.3
71433.4
71370.6
71313.3
71257.7
71205.9
71156.3
71109.5
71065
71022.9
70983
70945.3
70909.7
70876.2
70844.9
70815.9
70789.4
70765.6
70744.8
70727.6
70714.4
70705.9
70703
70706.6
70717.7
70737.5
70767.5
70809.1
70863.8
70933.4
71019.8
71124.6
71250.1
71397.9
71570.4
71769.2
71997
72254.4
72545.7
72868.5
73231.6
73624.1
74068.4
74529.5
75069.3
75583.7
76250.3
76764.5
77639.1
77988.4
79291.9
78977.1
81302.6
78797.6
72823.2
72315.1
72371.9
72153.5
72110.8
71964.3
71899.5
71791.6
71721.7
71635.8
71567.9
71495.7
71432.7
71370
71312.6
71257.1
71205.2
71155.6
71108.9
71064.4
71022.3
70982.4
70944.7
70909.1
70875.6
70844.3
70815.3
70788.8
70765
70744.2
70727
70713.8
70705.3
70702.4
70705.9
70717
70736.9
70766.9
70808.4
70863.2
70932.8
71019.2
71124
71249.5
71397.3
71569.9
71768.7
71996.5
72253.9
72545.3
72868.1
73231.2
73623.8
74068.2
74529.3
75069.2
75583.6
76250.4
76764.6
77639.3
77988.7
79292.5
78977.7
81304
78792.4
72822.1
72314.9
72371.4
72152.9
72110.2
71963.7
71898.8
71791
71721
71635.1
71567.3
71495.1
71432.1
71369.3
71312
71256.5
71204.6
71155
71108.2
71063.7
71021.6
70981.7
70944
70908.4
70874.9
70843.6
70814.6
70788.1
70764.3
70743.5
70726.3
70713.1
70704.6
70701.7
70705.3
70716.4
70736.3
70766.2
70807.8
70862.6
70932.2
71018.6
71123.4
71248.9
71396.8
71569.3
71768.1
71996
72253.4
72544.8
72867.7
73230.9
73623.5
74067.9
74529.2
75069.1
75583.7
76250.5
76764.9
77639.8
77989.3
79293.6
78979
81305.5
78794.6
72820.9
72314.7
72370.8
72152.3
72109.6
71963.1
71898.2
71790.3
71720.3
71634.5
71566.6
71494.4
71431.4
71368.6
71311.3
71255.8
71203.9
71154.3
71107.5
71063
71021
70981.1
70943.3
70907.7
70874.2
70842.9
70814
70787.4
70763.6
70742.9
70725.6
70712.4
70704
70701
70704.6
70715.7
70735.6
70765.6
70807.1
70861.9
70931.6
71017.9
71122.8
71248.3
71396.2
71568.8
71767.6
71995.5
72252.9
72544.4
72867.2
73230.5
73623.2
74067.7
74529
75069
75583.6
76250.6
76765
77640.1
77989.8
79294.2
78980.3
81306.3
78795.8
72819.6
72314.4
72370.3
72151.6
72108.9
71962.4
71897.5
71789.6
71719.6
71633.8
71565.9
71493.7
71430.7
71367.9
71310.6
71255.1
71203.2
71153.6
71106.8
71062.3
71020.2
70980.3
70942.6
70907
70873.5
70842.2
70813.2
70786.7
70762.9
70742.1
70724.9
70711.7
70703.2
70700.3
70703.9
70715
70734.9
70764.9
70806.4
70861.2
70930.9
71017.3
71122.2
71247.7
71395.5
71568.2
71767
71994.9
72252.4
72543.9
72866.8
73230.1
73622.8
74067.4
74528.7
75068.8
75583.5
76250.5
76765
77640
77989.8
79293.9
78980.8
81303.3
78798.1
72818.3
72314.1
72369.7
72151
72108.2
71961.7
71896.8
71788.9
71718.9
71633
71565.2
71492.9
71429.9
71367.2
71309.8
71254.3
71202.4
71152.8
71106.1
71061.6
71019.5
70979.6
70941.9
70906.3
70872.8
70841.5
70812.5
70786
70762.1
70741.4
70724.1
70711
70702.5
70699.6
70703.1
70714.3
70734.1
70764.1
70805.7
70860.5
70930.2
71016.6
71121.5
71247
71394.9
71567.5
71766.4
71994.3
72251.8
72543.3
72866.3
73229.6
73622.4
74066.9
74528.3
75068.4
75583.2
76250.1
76764.7
77639.5
77989.4
79292.5
78980.4
81296.8
78800.6
72817
72313.7
72369.2
72150.3
72107.5
71961
71896
71788.2
71718.2
71632.3
71564.4
71492.2
71429.2
71366.4
71309.1
71253.6
71201.7
71152.1
71105.3
71060.8
71018.7
70978.8
70941.1
70905.5
70872
70840.7
70811.7
70785.2
70761.4
70740.6
70723.4
70710.2
70701.7
70698.8
70702.4
70713.5
70733.4
70763.4
70805
70859.8
70929.4
71015.8
71120.7
71246.3
71394.2
71566.8
71765.7
71993.7
72251.2
72542.7
72865.7
73229
73621.8
74066.4
74527.8
75067.9
75582.7
76249.5
76764.1
77638.5
77988.5
79289.9
78979.2
81287.1
78803.4
72815.6
72313.3
72368.5
72149.7
72106.8
71960.2
71895.3
71787.4
71717.4
71631.5
71563.6
71491.4
71428.4
71365.6
71308.3
71252.8
71200.9
71151.3
71104.5
71060
71017.9
70978
70940.3
70904.7
70871.2
70839.9
70810.9
70784.4
70760.6
70739.8
70722.6
70709.4
70700.9
70698
70701.6
70712.7
70732.6
70762.6
70804.2
70859
70928.6
71015
71120
71245.5
71393.4
71566.1
71765
71992.9
72250.5
72542
72865
73228.3
73621.1
74065.7
74527.1
75067.2
75581.9
76248.6
76763.1
77637
77986.9
79286.1
78977
81274.2
78806.3
72814.1
72312.9
72367.9
72149
72106
71959.4
71894.5
71786.6
71716.6
71630.7
71562.8
71490.6
71427.6
71364.8
71307.4
71251.9
71200
71150.4
71103.7
71059.2
71017.1
70977.2
70939.5
70903.8
70870.4
70839.1
70810.1
70783.5
70759.7
70739
70721.7
70708.5
70700.1
70697.2
70700.7
70711.9
70731.8
70761.8
70803.4
70858.1
70927.8
71014.2
71119.2
71244.7
71392.6
71565.3
71764.2
71992.2
72249.7
72541.2
72864.2
73227.6
73620.3
74064.9
74526.3
75066.3
75580.9
76247.4
76761.8
77634.8
77984.7
79281
78973.9
81258
78809.3
72812.7
72312.4
72367.1
72148.2
72105.2
71958.6
71893.7
71785.8
71715.7
71629.8
71561.9
71489.7
71426.7
71364
71306.6
71251.1
71199.2
71149.6
71102.8
71058.3
71016.2
70976.3
70938.6
70903
70869.5
70838.2
70809.2
70782.7
70758.9
70738.1
70720.9
70707.7
70699.2
70696.3
70699.9
70711
70730.9
70760.9
70802.5
70857.3
70927
71013.4
71118.3
71243.8
71391.8
71564.4
71763.3
71991.3
72248.8
72540.4
72863.3
73226.7
73619.4
74063.9
74525.3
75065.1
75579.7
76245.8
76760
77631.9
77981.7
79274.5
78969.6
81238.5
78812.4
72811.1
72311.9
72366.3
72147.4
72104.4
71957.8
71892.8
71784.9
71714.9
71629
71561.1
71488.8
71425.8
71363.1
71305.7
71250.2
71198.3
71148.7
71101.9
71057.4
71015.3
70975.4
70937.7
70902.1
70868.6
70837.3
70808.3
70781.8
70758
70737.2
70720
70706.8
70698.3
70695.4
70699
70710.1
70730
70760
70801.6
70856.4
70926.1
71012.5
71117.4
71242.9
71390.9
71563.5
71762.4
71990.4
72247.9
72539.4
72862.3
73225.6
73618.4
74062.8
74524
75063.7
75578.1
76243.7
76757.7
77628.2
77978.1
79266.4
78964.2
81216
78815.2
72809.4
72311.3
72365.4
72146.6
72103.6
71956.9
71891.9
71784
71714
71628
71560.2
71487.9
71424.9
71362.2
71304.8
71249.2
71197.4
71147.8
71101
71056.5
71014.4
70974.5
70936.8
70901.1
70867.7
70836.4
70807.4
70780.8
70757
70736.3
70719
70705.8
70697.4
70694.5
70698
70709.1
70729
70759
70800.6
70855.4
70925.1
71011.5
71116.4
71242
71389.9
71562.5
71761.4
71989.4
72246.9
72538.3
72861.2
73224.5
73617.1
74061.4
74522.6
75062
75576.3
76241.2
76754.9
77623.6
77973.6
79256.7
78957.6
81190.4
78817.8
72807.7
72310.7
72364.5
72145.7
72102.7
71956
71891
71783.1
71713
71627.1
71559.2
71487
71424
71361.2
71303.8
71248.3
71196.4
71146.8
71100
71055.5
71013.4
70973.5
70935.8
70900.2
70866.7
70835.4
70806.4
70779.9
70756
70735.3
70718
70704.9
70696.4
70693.5
70697
70708.2
70728
70758.1
70799.6
70854.4
70924.1
71010.5
71115.4
71241
71388.9
71561.5
71760.3
71988.3
72245.7
72537.2
72860
73223.1
73615.7
74059.9
74520.9
75060
75574
76238.2
76751.6
77618.3
77968.2
79245.5
78949.7
81161.7
78819.7
72805.8
72310.1
72363.6
72144.8
72101.8
71955.1
71890.1
71782.1
71712.1
71626.1
71558.2
71486
71423
71360.2
71302.8
71247.3
71195.4
71145.8
71099
71054.5
71012.4
70972.5
70934.8
70899.2
70865.7
70834.4
70805.4
70778.8
70755
70734.3
70717
70703.8
70695.4
70692.5
70696
70707.1
70727
70757
70798.6
70853.4
70923.1
71009.4
71114.4
71239.9
71387.8
71560.4
71759.2
71987.1
72244.5
72535.8
72858.6
73221.7
73614.1
74058.1
74518.9
75057.6
75571.3
76234.6
76747.6
77612
77961.9
79232.5
78940.4
81129.8
78821
72803.9
72309.5
72362.5
72143.7
72100.8
71954.1
71889.1
71781.1
71711
71625.1
71557.2
71484.9
71421.9
71359.2
71301.8
71246.2
71194.3
71144.7
71098
71053.5
71011.4
70971.5
70933.7
70898.1
70864.6
70833.3
70804.3
70777.8
70754
70733.2
70716
70702.8
70694.3
70691.4
70695
70706.1
70725.9
70755.9
70797.5
70852.3
70921.9
71008.3
71113.2
71238.7
71386.6
71559.1
71757.9
71985.8
72243.1
72534.4
72857.1
73220
73612.3
74056.1
74516.6
75054.9
75568.2
76230.4
76743
77604.8
77954.6
79217.7
78929.7
81094.6
78821.2
72802
72308.8
72361.5
72142.7
72099.8
71953.1
71888
71780.1
71710
71624
71556.1
71483.9
71420.9
71358.1
71300.7
71245.2
71193.3
71143.7
71096.9
71052.4
71010.3
70970.4
70932.6
70897
70863.5
70832.2
70803.2
70776.7
70752.9
70732.1
70714.9
70701.7
70693.2
70690.3
70693.8
70704.9
70724.8
70754.8
70796.4
70851.1
70920.8
71007.1
71112
71237.5
71385.3
71557.8
71756.6
71984.4
72241.6
72532.8
72855.4
73218.2
73610.3
74053.7
74514
75051.7
75564.6
76225.6
76737.7
77596.6
77946.3
79200.9
78917.4
81055.9
78820.3
72799.9
72308.1
72360.3
72141.6
72098.7
71952
71887
71779
71708.9
71622.9
71555
71482.8
71419.7
71357
71299.6
71244
71192.1
71142.5
71095.7
71051.2
71009.1
70969.2
70931.5
70895.9
70862.4
70831.1
70802.1
70775.5
70751.7
70731
70713.7
70700.5
70692.1
70689.1
70692.7
70703.8
70723.6
70753.6
70795.2
70849.9
70919.6
71005.9
71110.7
71236.2
71384
71556.4
71755.1
71982.8
72240
72531.1
72853.5
73216.1
73608
74051.1
74511
75048.1
75560.5
76220.2
76731.6
77587.2
77936.8
79182.1
78903.4
81013.7
78818.1
72797.8
72307.4
72359.2
72140.4
72097.6
71950.9
71885.8
71777.9
71707.8
71621.8
71553.9
71481.6
71418.6
71355.8
71298.4
71242.9
71191
71141.4
71094.6
71050.1
71008
70968
70930.3
70894.7
70861.2
70829.9
70800.9
70774.4
70750.5
70729.8
70712.5
70699.3
70690.9
70687.9
70691.5
70702.6
70722.4
70752.4
70793.9
70848.7
70918.3
71004.6
71109.4
71234.8
71382.5
71554.9
71753.5
71981.2
72238.2
72529.2
72851.4
73213.8
73605.4
74048.1
74507.7
75044
75555.8
76214
76724.7
77576.6
77926.1
79161.1
78887.7
80967.9
78814.3
72795.6
72306.7
72358
72139.2
72096.4
71949.7
71884.7
71776.7
71706.6
71620.6
71552.7
71480.4
71417.4
71354.6
71297.2
71241.6
71189.7
71140.1
71093.3
71048.8
71006.7
70966.8
70929.1
70893.5
70860
70828.7
70799.7
70773.1
70749.3
70728.5
70711.3
70698.1
70689.6
70686.7
70690.2
70701.3
70721.1
70751.1
70792.6
70847.3
70916.9
71003.2
71108
71233.3
71381
71553.3
71751.8
71979.3
72236.3
72527.1
72849.1
73211.2
73602.5
74044.8
74503.9
75039.4
75550.6
76207.1
76717
77564.7
77914.1
79137.9
78870.2
80918.2
78808.8
72793.3
72305.8
72356.8
72137.9
72095.1
71948.5
71883.4
71775.5
71705.3
71619.4
71551.4
71479.1
71416.1
71353.3
71295.9
71240.4
71188.5
71138.9
71092.1
71047.6
71005.5
70965.5
70927.8
70892.2
70858.7
70827.4
70798.4
70771.8
70748
70727.3
70710
70696.8
70688.3
70685.4
70688.9
70700
70719.8
70749.7
70791.3
70845.9
70915.5
71001.7
71106.4
71231.7
71379.3
71551.6
71750
71977.4
72234.2
72524.8
72846.6
73208.3
73599.3
74041.1
74499.6
75034.2
75544.7
76199.3
76708.3
77551.5
77900.7
79112.2
78850.8
80864.6
78801.4
72790.9
72305
72355.5
72136.6
72093.8
71947.2
71882.2
71774.2
71704.1
71618.1
71550.1
71477.9
71414.8
71352
71294.6
71239.1
71187.2
71137.5
71090.8
71046.3
71004.1
70964.2
70926.5
70890.9
70857.4
70826.1
70797.1
70770.5
70746.7
70725.9
70708.7
70695.4
70687
70684
70687.5
70698.6
70718.4
70748.3
70789.8
70844.5
70914
71000.2
71104.8
71230
71377.6
71549.7
71748
71975.3
72231.9
72522.2
72843.8
73205.2
73595.8
74036.9
74494.9
75028.5
75538.1
76190.6
76698.6
77536.7
77885.7
79084
78829.3
80806.9
78791.7
72788.4
72304.1
72354.1
72135.2
72092.4
71945.8
71880.8
71772.8
71702.7
71616.7
71548.8
71476.5
71413.5
71350.7
71293.3
71237.7
71185.8
71136.2
71089.4
71044.9
71002.8
70962.8
70925.1
70889.5
70856
70824.7
70795.7
70769.1
70745.3
70724.5
70707.3
70694
70685.6
70682.6
70686.1
70697.1
70716.9
70746.8
70788.3
70842.9
70912.4
70998.5
71103.1
71228.3
71375.7
71547.8
71745.9
71973
72229.4
72519.5
72840.7
73201.7
73591.8
74032.3
74489.7
75022.1
75530.8
76180.9
76687.8
77520.4
77869.2
79053.2
78805.6
80744.9
78779.7
72785.9
72303.2
72352.7
72133.8
72091
71944.4
71879.4
71771.4
71701.3
71615.3
71547.4
71475.1
71412
71349.3
71291.8
71236.3
71184.4
71134.8
71088
71043.5
71001.3
70961.4
70923.7
70888
70854.6
70823.2
70794.2
70767.7
70743.9
70723.1
70705.8
70692.6
70684.1
70681.1
70684.6
70695.6
70715.4
70745.3
70786.7
70841.3
70910.7
70996.8
71101.3
71226.4
71373.7
71545.6
71743.6
71970.5
72226.6
72516.4
72837.3
73197.8
73587.4
74027.2
74483.8
75014.9
75522.6
76170.1
76675.8
77502.4
77850.9
79019.5
78779.7
80678.6
78765
72783.2
72302.3
72351.2
72132.3
72089.5
71942.9
71877.9
71770
71699.9
71613.9
71545.9
71473.6
71410.6
71347.8
71290.4
71234.8
71182.9
71133.3
71086.5
71042
70999.9
70959.9
70922.2
70886.6
70853.1
70821.8
70792.7
70766.2
70742.4
70721.6
70704.3
70691.1
70682.6
70679.6
70683
70694.1
70713.8
70743.7
70785
70839.6
70908.9
70994.9
71099.4
71224.3
71371.5
71543.3
71741.1
71967.7
72223.6
72513.1
72833.6
73193.6
73582.6
74021.6
74477.4
75007
75513.6
76158.2
76662.5
77482.6
77830.9
78982.9
78751.3
80607.7
78747.5
72780.5
72301.3
72349.7
72130.8
72087.9
71941.3
71876.4
71768.4
71698.3
71612.4
71544.4
71472.1
71409.1
71346.3
71288.8
71233.3
71181.4
71131.7
71084.9
71040.4
70998.3
70958.4
70920.6
70885
70851.5
70820.2
70791.2
70764.6
70740.8
70720
70702.7
70689.5
70681
70678
70681.4
70692.4
70712.1
70741.9
70783.3
70837.8
70907.1
70993
71097.3
71222.2
71369.2
71540.8
71738.4
71964.8
72220.4
72509.4
72829.5
73188.9
73577.3
74015.4
74470.2
74998.3
75503.6
76145.1
76647.9
77460.9
77808.8
78943.2
78720.4
80532.3
78726.9
72777.6
72300.2
72348.1
72129.2
72086.3
71939.7
71874.8
71766.9
71696.7
71610.8
71542.8
71470.5
71407.5
71344.7
71287.2
71231.7
71179.8
71130.1
71083.3
71038.8
70996.7
70956.8
70919
70883.4
70849.9
70818.6
70789.6
70763
70739.2
70718.4
70701.1
70687.8
70679.3
70676.3
70679.7
70690.7
70710.4
70740.2
70781.4
70835.9
70905.1
70990.9
71095.2
71219.9
71366.8
71538.2
71735.5
71961.6
72216.8
72505.4
72825
73183.8
73571.5
74008.5
74462.4
74988.7
75492.6
76130.6
76631.8
77437.1
77784.7
78900.3
78686.8
80452.2
78702.8
72774.6
72299.1
72346.4
72127.5
72084.6
71938
71873.1
71765.2
71695.1
71609.1
71541.2
71468.9
71405.8
71343
71285.6
71230
71178.1
71128.5
71081.7
71037.2
70995
70955.1
70917.4
70881.7
70848.2
70816.9
70787.9
70761.3
70737.5
70716.7
70699.4
70686.1
70677.6
70674.5
70678
70688.9
70708.5
70738.3
70779.5
70833.9
70903
70988.7
71092.9
71217.4
71364.1
71535.3
71732.3
71958.1
72213
72501.1
72820.1
73178.2
73565.1
74001
74453.7
74978.1
75480.4
76114.7
76614.1
77411.2
77758.3
78854
78650.3
80367.2
78675.1
72771.6
72298
72344.7
72125.7
72082.9
71936.3
71871.3
71763.4
71693.4
71607.4
71539.4
71467.2
71404.1
71341.3
71283.9
71228.3
71176.4
71126.7
71079.9
71035.4
70993.3
70953.4
70915.6
70880
70846.5
70815.2
70786.1
70759.6
70735.7
70714.9
70697.6
70684.3
70675.8
70672.7
70676.1
70687
70706.6
70736.3
70777.5
70831.7
70900.8
70986.4
71090.4
71214.7
71361.2
71532.2
71728.9
71954.3
72208.8
72496.4
72814.8
73172.1
73558.1
73992.7
74444.2
74966.5
75467.1
76097.3
76594.7
77383
77729.6
78804.3
78610.8
80277.4
78643.5
72768.4
72296.8
72342.9
72123.9
72081.1
71934.5
71869.5
71761.6
71691.5
71605.6
71537.6
71465.4
71402.3
71339.5
71282.1
71226.5
71174.6
71124.9
71078.1
71033.6
70991.5
70951.6
70913.8
70878.2
70844.7
70813.4
70784.3
70757.7
70733.9
70713.1
70695.8
70682.5
70673.9
70670.8
70674.2
70685
70704.6
70734.2
70775.3
70829.5
70898.4
70983.9
71087.8
71211.9
71358.2
71528.8
71725.3
71950.3
72204.2
72491.3
72809
73165.4
73550.4
73983.7
74433.8
74953.7
75452.4
76078.2
76573.4
77352.3
77698.4
78750.9
78568.1
80182.5
78607.5
72765.1
72295.6
72341
72122
72079.2
71932.6
71867.6
71759.7
71689.6
71603.7
71535.8
71463.5
71400.4
71337.6
71280.2
71224.6
71172.7
71123.1
71076.3
71031.7
70989.6
70949.7
70911.9
70876.3
70842.8
70811.5
70782.4
70755.8
70732
70711.2
70693.8
70680.5
70671.9
70668.8
70672.2
70683
70702.5
70732.1
70773.1
70827.2
70896
70981.3
71085
71208.9
71354.9
71525.3
71721.3
71945.9
72199.3
72485.7
72802.6
73158
73542
73973.8
74422.3
74939.7
75436.4
76057.4
76550.2
77319
77664.4
78693.7
78521.9
80082.6
78567.1
72761.7
72294.3
72339
72120.1
72077.2
71930.6
71865.6
71757.7
71687.7
71601.7
71533.8
71461.5
71398.5
71335.7
71278.2
71222.7
71170.8
71121.1
71074.3
71029.8
70987.7
70947.7
70910
70874.3
70840.8
70809.5
70780.5
70753.9
70730
70709.2
70691.8
70678.5
70669.9
70666.8
70670.1
70680.8
70700.3
70729.8
70770.7
70824.7
70893.4
70978.5
71082
71205.7
71351.4
71521.4
71717.1
71941.1
72194
72479.6
72795.7
73150
73532.8
73962.9
74409.8
74924.4
75418.8
76034.7
76524.9
77282.9
77627.6
78632.5
78472.1
79977.7
78521.8
72758.1
72292.9
72337
72118
72075.1
71928.5
71863.6
71755.7
71685.6
71599.7
71531.8
71459.5
71396.4
71333.6
71276.2
71220.7
71168.7
71119.1
71072.3
71027.8
70985.6
70945.7
70907.9
70872.3
70838.8
70807.5
70778.4
70751.8
70727.9
70707.1
70689.7
70676.4
70667.8
70664.6
70667.9
70678.6
70698
70727.4
70768.2
70822.1
70890.6
70975.6
71078.8
71202.3
71347.7
71517.3
71712.5
71936
72188.2
72473
72788.2
73141.3
73522.8
73951.1
74396
74907.7
75399.6
76010
76497.3
77244
77587.7
78567.2
78418.5
79867.5
78471.4
72754.4
72291.5
72334.9
72115.9
72073
71926.4
71861.4
71753.5
71683.5
71597.5
71529.6
71457.4
71394.3
71331.5
71274.1
71218.5
71166.6
71117
71070.2
71025.7
70983.5
70943.6
70905.8
70870.2
70836.7
70805.3
70776.3
70749.7
70725.8
70705
70687.6
70674.2
70665.5
70662.4
70665.6
70676.2
70695.6
70724.9
70765.6
70819.3
70887.7
70972.5
71075.5
71198.6
71343.7
71512.9
71707.5
71930.4
72181.9
72465.8
72780
73131.8
73511.8
73938.1
74381.1
74889.5
75378.6
75983.1
76467.3
77201.9
77544.6
78497.7
78360.8
79752.3
78415.6
72750.6
72290
72332.7
72113.7
72070.8
71924.2
71859.2
71751.3
71681.2
71595.3
71527.4
71455.1
71392.1
71329.3
71271.9
71216.3
71164.4
71114.8
71068
71023.5
70981.3
70941.4
70903.6
70868
70834.5
70803.1
70774.1
70747.5
70723.6
70702.7
70685.3
70671.9
70663.2
70660
70663.2
70673.8
70693
70722.2
70762.8
70816.4
70884.6
70969.2
71071.9
71194.7
71339.4
71508.1
71702.2
71924.4
72175.1
72458
72771
73121.5
73499.9
73924
74364.7
74869.6
75355.8
75953.9
76434.7
77156.6
77498
78423.7
78298.7
79631.7
78354.2
72746.7
72288.5
72330.4
72111.4
72068.5
71921.9
71856.9
71749
71678.9
71593
71525.1
71452.8
71389.8
71327
71269.6
71214
71162.1
71112.5
71065.7
71021.2
70979
70939.1
70901.3
70865.7
70832.2
70800.8
70771.8
70745.2
70721.2
70700.4
70683
70669.5
70660.8
70657.6
70660.7
70671.2
70690.4
70719.5
70759.9
70813.3
70881.3
70965.6
71068.1
71190.5
71334.8
71503
71696.5
71917.9
72167.7
72449.6
72761.4
73110.2
73486.8
73908.6
74346.9
74847.9
75330.9
75922.2
76399.4
77107.8
77447.7
78345.2
78232.1
79506
78286.8
72742.6
72286.9
72328
72109
72066.1
71919.5
71854.5
71746.6
71676.5
71590.6
71522.7
71450.4
71387.4
71324.6
71267.2
71211.6
71159.7
71110.1
71063.3
71018.8
70976.7
70936.7
70898.9
70863.3
70829.8
70798.4
70769.4
70742.7
70718.8
70697.9
70680.5
70667.1
70658.3
70655
70658
70668.5
70687.6
70716.5
70756.9
70810.1
70877.8
70961.9
71064
71186.1
71329.8
71497.4
71690.3
71910.9
72159.7
72440.4
72750.8
73098
73472.7
73891.8
74327.5
74824.4
75303.8
75887.9
76361
77055.4
77393.5
78261.9
78160.6
79375
78213.1
72738.3
72285.2
72325.6
72106.5
72063.6
71917
71852
71744.1
71674
71588.1
71520.1
71447.9
71384.9
71322.1
71264.7
71209.1
71157.2
71107.6
71060.8
71016.3
70974.2
70934.2
70896.5
70860.8
70827.3
70795.9
70766.9
70740.2
70716.3
70695.4
70677.9
70664.5
70655.7
70652.3
70655.3
70665.7
70684.6
70713.5
70753.6
70806.6
70874.1
70957.9
71059.6
71181.3
71324.5
71491.5
71683.6
71903.3
72151
72430.5
72739.4
73084.6
73457.2
73873.6
74306.3
74798.8
75274.3
75850.7
76319.4
76999.1
77335.2
78173.7
78084
79238.6
78132.7
72733.9
72283.4
72323
72103.9
72061
71914.4
71849.4
71741.5
71671.4
71585.5
71517.5
71445.3
71382.3
71319.5
71262.1
71206.6
71154.6
71105
71058.2
71013.7
70971.6
70931.6
70893.9
70858.2
70824.7
70793.3
70764.3
70737.6
70713.7
70692.8
70675.3
70661.8
70652.9
70649.5
70652.4
70662.7
70681.5
70710.2
70750.2
70803
70870.2
70953.7
71055
71176.2
71318.8
71485.1
71676.4
71895.1
72141.7
72419.7
72726.9
73070.1
73440.4
73853.7
74283.3
74771
75242.4
75810.5
76274.5
76938.8
77272.3
78080.3
78001.9
79096.9
78045.4
72729.4
72281.6
72320.3
72101.2
72058.3
71911.7
71846.7
71738.7
71668.7
71582.7
71514.8
71442.6
71379.5
71316.8
71259.4
71203.8
71151.9
71102.3
71055.5
71011
70968.9
70928.9
70891.2
70855.5
70822
70790.6
70761.5
70734.9
70710.9
70690
70672.5
70659
70650.1
70646.6
70649.4
70659.6
70678.3
70706.8
70746.6
70799.2
70866.1
70949.2
71050.1
71170.7
71312.7
71478.2
71668.6
71886.2
72131.5
72408
72713.4
73054.4
73422.2
73832.1
74258.3
74740.8
75207.6
75767
76225.8
76874.1
77204.8
77981.6
77914.1
78949.7
77950.7
72724.7
72279.6
72317.5
72098.4
72055.5
71908.9
71843.8
71735.9
71665.8
71579.9
71512
71439.7
71376.7
71313.9
71256.5
71201
71149.1
71099.5
71052.7
71008.2
70966.1
70926.1
70888.4
70852.7
70819.2
70787.8
70758.7
70732
70708.1
70687.1
70669.6
70656
70647.1
70643.5
70646.3
70656.3
70674.9
70703.3
70742.8
70795.1
70861.7
70944.4
71044.8
71164.8
71306.2
71470.9
71660.2
71876.7
72120.5
72395.3
72698.8
73037.3
73402.3
73808.7
74231.1
74708
75169.9
75720.1
76173.2
76804.8
77132.3
77877.4
77820.2
78797
77848.3
72719.8
72277.6
72314.6
72095.5
72052.5
71905.9
71840.9
71733
71662.9
71577
71509
71436.8
71373.8
71311
71253.6
71198.1
71146.2
71096.5
71049.8
71005.3
70963.1
70923.2
70885.4
70849.8
70816.2
70784.9
70755.8
70729.1
70705.1
70684.1
70666.5
70652.9
70643.9
70640.3
70643
70652.9
70671.3
70699.5
70738.8
70790.8
70857.1
70939.3
71039.2
71158.6
71299.2
71462.9
71651.2
71866.3
72108.7
72381.6
72682.9
73018.7
73380.8
73783.2
74201.5
74672.4
75129
75669.4
76116.4
76730.7
77054.4
77767.5
77720
78638.7
77737.9
72714.8
72275.5
72311.6
72092.5
72049.5
71902.9
71837.9
71729.9
71659.9
71573.9
71506
71433.7
71370.7
71307.9
71250.5
71195
71143.1
71093.5
71046.7
71002.2
70960.1
70920.2
70882.4
70846.7
70813.2
70781.8
70752.7
70726
70702
70681
70663.4
70649.7
70640.7
70637
70639.5
70649.3
70667.6
70695.6
70734.6
70786.3
70852.2
70933.9
71033.2
71151.9
71291.6
71454.4
71641.5
71855.2
72095.9
72366.7
72665.7
72998.6
73357.4
73755.6
74169.4
74633.9
75084.7
75614.8
76055.1
76651.5
76970.8
77651.6
77613
78474.6
77619.2
72709.6
72273.3
72308.5
72089.4
72046.4
71899.7
71834.7
71726.8
71656.7
71570.7
71502.8
71430.6
71367.5
71304.8
71247.3
71191.8
71139.9
71090.3
71043.5
70999
70956.9
70917
70879.2
70843.6
70810
70778.6
70749.5
70722.8
70698.8
70677.8
70660.1
70646.4
70637.3
70633.4
70635.9
70645.6
70663.6
70691.4
70730.2
70781.5
70846.9
70928.2
71026.8
71144.8
71283.6
71445.3
71631.1
71843.2
72082
72350.7
72647.1
72976.8
73332
73725.7
74134.7
74592.3
75036.8
75555.8
75988.9
76566.8
76881.2
77529.4
77498.9
78304.7
77491.8
72704.2
72271
72305.2
72086.1
72043.1
71896.4
71831.4
71723.5
71653.4
71567.4
71499.5
71427.3
71364.2
71301.4
71244
71188.5
71136.6
71087
71040.2
70995.7
70953.6
70913.7
70875.9
70840.2
70806.7
70775.3
70746.2
70719.5
70695.4
70674.3
70656.7
70642.9
70633.7
70629.8
70632.1
70641.6
70659.5
70687
70725.4
70776.4
70841.4
70922
71020
71137.2
71275
71435.5
71619.9
71830.3
72067.1
72333.4
72626.9
72953.3
73304.6
73693.3
74097
74547.2
74984.9
75492.4
75917.6
76476.4
76785.2
77400.7
77377.4
78128.6
77355.6
72698.6
72268.5
72301.8
72082.7
72039.7
71893
71828
71720.1
71649.9
71564
71496.1
71423.8
71360.8
71298
71240.6
71185.1
71133.2
71083.5
71036.8
70992.2
70950.1
70910.2
70872.4
70836.8
70803.2
70771.8
70742.7
70716
70692
70670.9
70653.1
70639.3
70629.9
70625.9
70628.1
70637.5
70655.1
70682.4
70720.5
70771
70835.5
70915.5
71012.7
71129
71265.7
71425
71607.8
71816.4
72051.1
72314.7
72605.2
72927.8
73274.9
73658.2
74056.3
74498.5
74928.8
75424.1
75840.8
76379.9
76682.4
77265.1
77248
77946.1
77210.2
72692.8
72266
72298.3
72079.2
72036.1
71889.5
71824.4
71716.5
71646.4
71560.4
71492.5
71420.2
71357.2
71294.4
71237
71181.5
71129.6
71080
71033.2
70988.7
70946.5
70906.6
70868.8
70833.2
70799.6
70768.2
70739.1
70712.3
70688.2
70667.1
70649.4
70635.5
70626.1
70622
70624
70633.1
70650.5
70677.4
70715.2
70765.3
70829.2
70908.5
71005
71120.2
71255.8
71413.6
71594.7
71801.3
72033.7
72294.5
72581.7
72900.3
73242.9
73620.4
74012.2
74446
74868.2
75350.7
75758.2
76276.9
76572.3
77122.3
77110.4
77756.9
77055.5
72686.9
72263.3
72294.6
72075.5
72032.4
71885.8
71820.7
71712.8
71642.7
71556.7
71488.8
71416.5
71353.5
71290.7
71233.3
71177.8
71125.9
71076.2
71029.4
70984.9
70942.8
70902.9
70865.1
70829.4
70795.9
70764.5
70735.3
70708.6
70684.5
70663.3
70645.4
70631.5
70622
70617.7
70619.6
70628.6
70645.8
70672.3
70709.7
70759.2
70822.5
70901.1
70996.6
71110.7
71245
71401.3
71580.6
71785.1
72014.8
72272.5
72556.2
72870.5
73208.2
73579.4
73964.6
74389.4
74802.9
75271.8
75669.3
76167.2
76454.7
76971.9
76964.1
77560.6
76891.5
72680.7
72260.5
72290.8
72071.7
72028.6
71881.9
71816.9
71708.9
71638.8
71552.9
71484.9
71412.7
71349.6
71286.8
71229.4
71173.9
71122
71072.4
71025.6
70981.1
70938.9
70899
70861.2
70825.5
70792
70760.6
70731.4
70704.6
70680.5
70659.2
70641.4
70627.3
70617.8
70613.4
70615
70623.8
70640.6
70666.8
70703.7
70752.8
70815.4
70893.2
70987.8
71100.7
71233.6
71388.1
71565.4
71767.4
71994.4
72248.7
72528.5
72838.1
73170.5
73535.1
73913.2
74328.3
74732.5
75187.2
75573.8
76050.2
76328.9
76813.5
76808.7
77356.7
76717.9
72674.3
72257.6
72286.8
72067.7
72024.6
71877.9
71812.9
71704.9
71634.8
71548.8
71480.9
71408.6
71345.6
71282.8
71225.4
71169.9
71118
71068.3
71021.5
70977
70934.9
70895
70857.2
70821.5
70787.9
70756.5
70727.3
70700.5
70676.3
70655.1
70637.1
70623
70613.3
70608.8
70610.3
70618.8
70635.3
70661.2
70697.6
70746
70807.9
70884.8
70978.2
71089.9
71221.3
71374
71549.2
71748.6
71972.5
72223.1
72498.6
72803.1
73129.6
73487.2
73857.5
74262.4
74656.8
75096.5
75471.5
75925.9
76194.7
76646.8
76643.7
77144.6
76535
72667.7
72254.5
72282.7
72063.6
72020.4
71873.8
71808.7
71700.7
71630.6
71544.7
71476.7
71404.5
71341.4
71278.6
71221.2
71165.7
71113.8
71064.2
71017.4
70972.8
70930.7
70890.8
70853
70817.3
70783.7
70752.3
70723.1
70696.3
70672
70650.7
70632.7
70618.5
70608.7
70604
70605.3
70613.5
70629.7
70655.2
70691.1
70738.9
70800
70876
70968.3
71078.6
71208.2
71358.9
71531.7
71728.3
71948.9
72195.6
72466.6
72765.5
73085.7
73435.4
73797.3
74191.4
74575
74999.2
75361.9
75793.6
76051.8
76471.4
76469
76923.8
76342.8
72660.9
72251.3
72278.4
72059.3
72016.1
71869.4
71804.4
71696.4
71626.3
71540.3
71472.4
71400.1
71337.1
71274.3
71216.9
71161.3
71109.4
71059.8
71013
70968.5
70926.4
70886.4
70848.6
70812.9
70779.4
70747.9
70718.7
70691.8
70667.6
70646.2
70628.1
70613.8
70603.9
70599
70600.1
70608.1
70624
70649
70684.3
70731.5
70791.7
70866.7
70957.8
71066.6
71194.6
71343.1
71513.3
71706.9
71923.8
72166.2
72432.1
72725
73038.5
73379.9
73732.8
74115.2
74487.2
74895.3
75244.6
75653.3
75899.9
76287.1
76284.2
76693.9
76141.6
72653.9
72248
72273.9
72054.8
72011.6
71864.9
71799.8
71691.9
71621.8
71535.8
71467.8
71395.6
71332.5
71269.8
71212.3
71156.8
71104.9
71055.3
71008.5
70964
70921.8
70881.9
70844.1
70808.4
70774.8
70743.3
70714.1
70687.2
70662.9
70641.5
70623.3
70608.9
70598.9
70593.8
70594.7
70602.3
70617.8
70642.4
70677.2
70723.6
70783
70856.9
70946.8
71054
71180.1
71326.4
71493.9
71684.2
71897.4
72135.2
72395.7
72682.1
72988.1
73320.5
73663.5
74033.6
74393.3
74784.2
75119.4
75504.8
75738.8
76093.9
76089.3
76454.5
75931.5
72646.7
72244.4
72269.2
72050.2
72006.9
71860.3
71795.2
71687.2
71617.1
71531.1
71463.1
71390.9
71327.8
71265.1
71207.6
71152.1
71100.2
71050.6
71003.8
70959.2
70917.1
70877.2
70839.4
70803.7
70770.1
70738.6
70709.3
70682.4
70658
70636.6
70618.3
70603.8
70593.6
70588.4
70589
70596.3
70611.5
70635.5
70669.7
70715.3
70773.8
70846.6
70935
71040.6
71164.7
71308.6
71473.3
71660.3
71869.4
72102.4
72357.3
72636.9
72935.1
73257.9
73590.2
73946.9
74293.1
74666.1
74986.1
75347.6
75568.3
75891.8
75884.8
76205.6
75711.9
72639.2
72240.7
72264.4
72045.4
72002.1
71855.4
71790.3
71682.3
71612.2
71526.2
71458.3
71386
71322.9
71260.2
71202.7
71147.2
71095.3
71045.7
70998.9
70954.3
70912.2
70872.3
70834.5
70798.7
70765.1
70733.6
70704.3
70677.4
70653
70631.5
70613.1
70598.5
70588.1
70582.7
70583.1
70590.1
70604.8
70628.3
70661.8
70706.6
70764.1
70835.7
70922.6
71026.5
71148.4
71289.8
71451.5
71634.8
71839.7
72067.6
72316.6
72589.1
72879.1
73191.9
73513.2
73855.9
74187.7
74541.7
74845
75181.9
75388
75680.2
75670.2
75948.1
75483.9
72631.4
72236.9
72259.4
72040.3
71997
71850.3
71785.2
71677.3
71607.1
71521.2
71453.2
71380.9
71317.9
71255.1
71197.7
71142.1
71090.2
71040.6
70993.8
70949.2
70907.1
70867.2
70829.3
70793.6
70760
70728.5
70699.2
70672.2
70647.8
70626.1
70607.7
70593
70582.4
70576.8
70576.9
70583.5
70597.7
70620.7
70653.5
70697.5
70753.9
70824.1
70909.5
71011.5
71131.1
71269.8
71428.3
71607.8
71808.2
72030.7
72273.5
72538.5
72819.9
73122.3
73432.1
73760.5
74077.3
74411.7
74697.4
75008.8
75198.6
75459.6
75444.9
75681.6
75247.3
72623.5
72232.8
72254.1
72035.1
71991.8
71845.1
71780
71672
71601.8
71515.9
71447.9
71375.6
71312.6
71249.8
71192.4
71136.8
71084.9
71035.3
70988.5
70943.9
70901.8
70861.8
70824
70788.3
70754.7
70723.1
70693.8
70666.8
70642.3
70620.6
70602.1
70587.2
70576.5
70570.6
70570.4
70576.6
70590.4
70612.7
70644.8
70687.8
70743.1
70812
70895.7
70995.6
71112.9
71248.7
71403.7
71579.2
71774.8
71991.6
72227.8
72484.9
72757.4
73048.9
73346.7
73660.3
73961.8
74276.3
74543.7
74829.4
75001.7
75231.1
75210
75405.7
75002
72615.3
72228.5
72248.6
72029.7
71986.3
71839.6
71774.5
71666.5
71596.3
71510.4
71442.4
71370.1
71307.1
71244.3
71186.9
71131.3
71079.4
71029.8
70983
70938.4
70896.3
70856.3
70818.5
70782.8
70749.1
70717.6
70688.2
70661.1
70636.6
70614.8
70596.2
70581.2
70570.3
70564.2
70563.6
70569.4
70582.7
70604.3
70635.6
70677.6
70731.7
70799.1
70881
70978.8
71093.5
71226.3
71377.7
71548.8
71739.3
71950.2
72179.4
72428.3
72691.3
72971.5
73256.8
73555.2
73840.7
74135.2
74384
74644.1
74798.1
74996.2
74966.9
75121.6
74748.8
72606.8
72224.1
72242.9
72024
71980.6
71833.9
71768.8
71660.8
71590.6
71504.7
71436.7
71364.4
71301.4
71238.6
71181.1
71125.6
71073.7
71024
70977.2
70932.7
70890.6
70850.6
70812.8
70777
70743.4
70711.8
70682.4