/*--------------------------------*- C++ -*----------------------------------*\
| =========                 |                                                 |
| \\      /  F ield         | OpenFOAM: The Open Source CFD Toolbox           |
|  \\    /   O peration     | Version:  v1906                                 |
|   \\  /    A nd           | Web:      www.OpenFOAM.com                      |
|    \\/     M anipulation  |                                                 |
\*---------------------------------------------------------------------------*/
FoamFile
{
    version     2.0;
    format      ascii;
    class       volScalarField;
    location    "0.2";
    object      p_rgh;
}
// * * * * * * * * * * * * * * * * * * * * * * * * * * * * * * * * * * * * * //

dimensions      [1 -1 -2 0 0 0 0];


internalField   nonuniform List<scalar> 
80000
(
72823.5
72315.7
72372.8
72154.4
72111.7
71965.3
71900.4
71792.6
71722.6
71636.7
71568.9
71496.7
71433.7
71370.9
71313.6
71258.1
71206.2
71156.6
71109.8
71065.4
71023.3
70983.4
70945.6
70910
70876.5
70845.3
70816.3
70789.7
70765.9
70745.2
70727.9
70714.7
70706.3
70703.3
70706.9
70718
70737.8
70767.8
70809.4
70864.1
70933.7
71020.1
71124.9
71250.4
71398.2
71570.8
71769.5
71997.3
72254.7
72546
72868.8
73231.9
73624.4
74068.7
74529.8
75069.6
75584
76250.6
76764.8
77639.4
77988.8
79292.2
78977.4
81303
78797.9
72824.1
72316.1
72372.9
72154.5
72111.8
71965.3
71900.4
71792.6
71722.6
71636.7
71568.9
71496.7
71433.7
71371
71313.6
71258.1
71206.2
71156.6
71109.8
71065.4
71023.3
70983.4
70945.6
70910
70876.6
70845.3
70816.3
70789.7
70765.9
70745.2
70727.9
70714.7
70706.3
70703.3
70706.9
70718
70737.9
70767.8
70809.4
70864.2
70933.8
71020.1
71125
71250.5
71398.3
71570.9
71769.6
71997.5
72254.9
72546.2
72869
73232.2
73624.8
74069.1
74530.3
75070.2
75584.6
76251.3
76765.6
77640.3
77989.7
79293.5
78978.7
81304.9
78793.3
72823.7
72316.6
72373
72154.5
72111.8
71965.3
71900.5
71792.6
71722.6
71636.8
71568.9
71496.7
71433.7
71371
71313.6
71258.1
71206.2
71156.6
71109.9
71065.4
71023.3
70983.4
70945.6
70910
70876.6
70845.3
70816.3
70789.7
70765.9
70745.2
70727.9
70714.7
70706.3
70703.4
70706.9
70718
70737.9
70767.9
70809.4
70864.2
70933.8
71020.2
71125.1
71250.6
71398.4
71571
71769.8
71997.6
72255.1
72546.5
72869.3
73232.5
73625.2
74069.6
74530.8
75070.8
75585.3
76252.2
76766.5
77641.4
77990.9
79295.2
78980.7
81307.1
78796.2
72823.2
72317
72373.2
72154.6
72111.9
71965.4
71900.5
71792.7
71722.7
71636.8
71568.9
71496.7
71433.7
71371
71313.6
71258.1
71206.2
71156.6
71109.9
71065.4
71023.3
70983.4
70945.7
70910
70876.6
70845.3
70816.3
70789.7
70765.9
70745.2
70727.9
70714.7
70706.3
70703.4
70706.9
70718
70737.9
70767.9
70809.5
70864.2
70933.9
71020.3
71125.2
71250.6
71398.5
71571.1
71769.9
71997.8
72255.3
72546.7
72869.6
73232.8
73625.5
74070
74531.3
75071.4
75586
76252.9
76767.4
77642.4
77992.1
79296.5
78982.6
81308.6
78798.2
72822.7
72317.5
72373.3
72154.7
72112
71965.4
71900.6
71792.7
71722.7
71636.8
71568.9
71496.7
71433.7
71371
71313.6
71258.1
71206.2
71156.6
71109.9
71065.4
71023.3
70983.4
70945.7
70910.1
70876.6
70845.3
70816.3
70789.8
70765.9
70745.2
70727.9
70714.8
70706.3
70703.4
70706.9
70718.1
70737.9
70767.9
70809.5
70864.3
70933.9
71020.3
71125.2
71250.7
71398.6
71571.2
71770
71998
72255.5
72546.9
72869.8
73233.1
73625.9
74070.4
74531.8
75071.9
75586.5
76253.5
76768.1
77643.1
77992.9
79296.9
78983.8
81306.3
78801.2
72822.2
72317.9
72373.6
72154.8
72112
71965.5
71900.6
71792.7
71722.7
71636.8
71569
71496.8
71433.8
71371
71313.6
71258.1
71206.2
71156.7
71109.9
71065.4
71023.3
70983.4
70945.7
70910.1
70876.6
70845.3
70816.3
70789.8
70766
70745.2
70728
70714.8
70706.3
70703.4
70707
70718.1
70738
70768
70809.5
70864.3
70934
71020.4
71125.3
71250.8
71398.7
71571.3
71770.2
71998.1
72255.6
72547.1
72870.1
73233.4
73626.2
74070.7
74532.1
75072.3
75587
76254
76768.5
77643.3
77993.2
79296.3
78984.2
81300.6
78804.5
72821.6
72318.3
72373.8
72154.9
72112.1
71965.5
71900.6
71792.8
71722.8
71636.9
71569
71496.8
71433.8
71371
71313.7
71258.1
71206.3
71156.7
71109.9
71065.4
71023.3
70983.4
70945.7
70910.1
70876.6
70845.3
70816.3
70789.8
70766
70745.2
70728
70714.8
70706.3
70703.4
70707
70718.1
70738
70768
70809.6
70864.4
70934
71020.4
71125.3
71250.9
71398.8
71571.4
71770.3
71998.3
72255.8
72547.3
72870.3
73233.6
73626.4
74071
74532.4
75072.5
75587.2
76254.1
76768.7
77643.1
77993.1
79294.5
78983.8
81291.7
78808
72821
72318.7
72373.9
72155.1
72112.2
71965.6
71900.7
71792.8
71722.8
71636.9
71569
71496.8
71433.8
71371.1
71313.7
71258.2
71206.3
71156.7
71109.9
71065.4
71023.3
70983.4
70945.7
70910.1
70876.6
70845.3
70816.3
70789.8
70766
70745.2
70728
70714.8
70706.3
70703.4
70707
70718.1
70738
70768
70809.6
70864.4
70934.1
71020.5
71125.4
71250.9
71398.8
71571.5
71770.4
71998.4
72255.9
72547.4
72870.4
73233.7
73626.5
74071.1
74532.5
75072.6
75587.3
76254
76768.6
77642.4
77992.3
79291.5
78982.4
81279.6
78811.7
72820.4
72319.1
72374.1
72155.2
72112.3
71965.7
71900.8
71792.9
71722.8
71636.9
71569.1
71496.8
71433.8
71371.1
71313.7
71258.2
71206.3
71156.7
71109.9
71065.5
71023.4
70983.5
70945.7
70910.1
70876.6
70845.3
70816.3
70789.8
70766
70745.2
70728
70714.8
70706.4
70703.4
70707
70718.1
70738
70768
70809.6
70864.4
70934.1
71020.5
71125.4
71251
71398.9
71571.6
71770.4
71998.4
72256
72547.5
72870.5
73233.8
73626.6
74071.2
74532.6
75072.5
75587.2
76253.6
76768.1
77641
77990.9
79287.3
78980.1
81264.2
78815.6
72819.8
72319.5
72374.3
72155.4
72112.4
71965.8
71900.8
71792.9
71722.9
71637
71569.1
71496.9
71433.9
71371.1
71313.7
71258.2
71206.3
71156.7
71110
71065.5
71023.4
70983.5
70945.7
70910.1
70876.6
70845.4
70816.4
70789.8
70766
70745.3
70728
70714.8
70706.4
70703.5
70707
70718.1
70738
70768
70809.6
70864.4
70934.1
71020.5
71125.5
71251
71398.9
71571.6
71770.5
71998.4
72256
72547.5
72870.5
73233.8
73626.6
74071.1
74532.4
75072.2
75586.8
76252.9
76767.2
77639
77988.9
79281.6
78976.8
81245.7
78819.5
72819.1
72319.9
72374.4
72155.5
72112.5
71965.8
71900.9
71793
71722.9
71637
71569.1
71496.9
71433.9
71371.1
71313.8
71258.2
71206.3
71156.8
71110
71065.5
71023.4
70983.5
70945.8
70910.1
70876.7
70845.4
70816.4
70789.8
70766
70745.3
70728
70714.8
70706.4
70703.5
70707
70718.2
70738
70768.1
70809.6
70864.4
70934.1
71020.5
71125.5
71251
71398.9
71571.6
71770.5
71998.4
72256
72547.5
72870.4
73233.7
73626.4
74070.8
74532.1
75071.8
75586.2
76251.8
76765.8
77636.2
77986.1
79274.4
78972.3
81224.1
78823.3
72818.4
72320.3
72374.4
72155.6
72112.6
71965.9
71900.9
71793
71723
71637.1
71569.2
71496.9
71433.9
71371.2
71313.8
71258.3
71206.4
71156.8
71110
71065.5
71023.4
70983.5
70945.8
70910.2
70876.7
70845.4
70816.4
70789.8
70766
70745.3
70728
70714.8
70706.4
70703.5
70707
70718.2
70738.1
70768.1
70809.7
70864.5
70934.1
71020.5
71125.5
71251
71398.9
71571.6
71770.4
71998.4
72255.9
72547.4
72870.2
73233.5
73626.1
74070.4
74531.6
75071
75585.3
76250.2
76763.9
77632.7
77982.6
79265.7
78966.6
81199.4
78826.8
72817.7
72320.7
72374.5
72155.7
72112.7
71966
71901
71793.1
71723
71637.1
71569.2
71497
71434
71371.2
71313.8
71258.3
71206.4
71156.8
71110
71065.5
71023.4
70983.5
70945.8
70910.2
70876.7
70845.4
70816.4
70789.9
70766
70745.3
70728
70714.9
70706.4
70703.5
70707.1
70718.2
70738.1
70768.1
70809.7
70864.4
70934.1
71020.5
71125.4
71251
71398.9
71571.5
71770.3
71998.3
72255.7
72547.2
72870
73233.2
73625.7
74069.9
74530.9
75070
75584
76248.2
76761.6
77628.3
77978.2
79255.5
78959.7
81171.7
78829.7
72816.9
72321.1
72374.6
72155.8
72112.8
71966.1
71901.1
71793.2
71723.1
71637.2
71569.3
71497
71434
71371.2
71313.8
71258.3
71206.4
71156.8
71110
71065.6
71023.5
70983.5
70945.8
70910.2
70876.7
70845.4
70816.4
70789.9
70766.1
70745.3
70728.1
70714.9
70706.4
70703.5
70707.1
70718.2
70738.1
70768.1
70809.7
70864.4
70934.1
71020.5
71125.4
71250.9
71398.8
71571.4
71770.2
71998.1
72255.5
72546.9
72869.7
73232.7
73625.2
74069.1
74530
75068.7
75582.3
76245.6
76758.6
77623.1
77973
79243.5
78951.5
81140.8
78832
72816.1
72321.6
72374.7
72155.9
72112.9
71966.2
71901.2
71793.2
71723.2
71637.2
71569.3
71497.1
71434
71371.3
71313.9
71258.3
71206.5
71156.9
71110.1
71065.6
71023.5
70983.6
70945.8
70910.2
70876.7
70845.4
70816.4
70789.9
70766.1
70745.3
70728.1
70714.9
70706.4
70703.5
70707.1
70718.2
70738.1
70768.1
70809.6
70864.4
70934.1
71020.4
71125.3
71250.8
71398.7
71571.3
71770
71997.9
72255.2
72546.5
72869.2
73232.1
73624.4
74068.2
74528.8
75067
75580.3
76242.5
76755.1
77616.9
77966.8
79229.8
78941.8
81106.7
78833.3
72815.2
72322
72374.7
72155.9
72113
71966.3
71901.3
71793.3
71723.2
71637.3
71569.3
71497.1
71434.1
71371.3
71313.9
71258.4
71206.5
71156.9
71110.1
71065.6
71023.5
70983.6
70945.9
70910.2
70876.8
70845.5
70816.5
70789.9
70766.1
70745.3
70728.1
70714.9
70706.4
70703.5
70707.1
70718.2
70738
70768
70809.6
70864.4
70934
71020.4
71125.2
71250.7
71398.5
71571.1
71769.8
71997.6
72254.9
72546.1
72868.6
73231.4
73623.5
74067
74527.2
75064.9
75577.8
76238.9
76750.9
77609.8
77959.5
79214.1
78930.6
81069.2
78833.6
72814.3
72322.5
72374.7
72156
72113.1
71966.4
71901.4
71793.4
71723.3
71637.3
71569.4
71497.1
71434.1
71371.3
71313.9
71258.4
71206.5
71156.9
71110.1
71065.6
71023.5
70983.6
70945.9
70910.3
70876.8
70845.5
70816.5
70789.9
70766.1
70745.4
70728.1
70714.9
70706.4
70703.5
70707.1
70718.2
70738
70768
70809.6
70864.3
70933.9
71020.3
71125.1
71250.6
71398.3
71570.8
71769.5
71997.2
72254.4
72545.5
72867.9
73230.5
73622.4
74065.5
74525.4
75062.5
75574.9
76234.6
76746
77601.6
77951.2
79196.5
78917.8
81028.1
78832.5
72813.4
72323
72374.8
72156
72113.1
71966.5
71901.4
71793.5
71723.3
71637.4
71569.5
71497.2
71434.2
71371.4
71314
71258.5
71206.5
71156.9
71110.2
71065.7
71023.6
70983.6
70945.9
70910.3
70876.8
70845.5
70816.5
70790
70766.1
70745.4
70728.1
70714.9
70706.5
70703.5
70707.1
70718.2
70738
70768
70809.5
70864.3
70933.9
71020.2
71125
71250.4
71398.1
71570.5
71769.1
71996.7
72253.8
72544.8
72867
73229.4
73621
74063.7
74523.3
75059.6
75571.4
76229.6
76740.3
77592.2
77941.7
79176.7
78903.3
80983.5
78829.9
72812.4
72323.5
72374.8
72156.1
72113.2
71966.6
71901.5
71793.5
71723.4
71637.4
71569.5
71497.2
71434.2
71371.4
71314
71258.5
71206.6
71157
71110.2
71065.7
71023.6
70983.7
70945.9
70910.3
70876.8
70845.5
70816.5
70790
70766.2
70745.4
70728.1
70714.9
70706.5
70703.5
70707.1
70718.1
70738
70767.9
70809.5
70864.2
70933.8
71020
71124.8
71250.1
71397.8
71570.2
71768.7
71996.2
72253.1
72543.9
72866
73228.1
73619.4
74061.6
74520.7
75056.2
75567.4
76223.9
76733.8
77581.6
77930.9
79154.7
78887.1
80935.1
78825.7
72811.4
72324
72374.9
72156.1
72113.3
71966.6
71901.6
71793.6
71723.5
71637.5
71569.6
71497.3
71434.3
71371.5
71314.1
71258.5
71206.6
71157
71110.2
71065.7
71023.6
70983.7
70946
70910.3
70876.8
70845.5
70816.5
70790
70766.2
70745.4
70728.1
70714.9
70706.5
70703.5
70707
70718.1
70738
70767.9
70809.4
70864.1
70933.6
71019.9
71124.6
71249.9
71397.5
71569.8
71768.2
71995.5
72252.3
72542.9
72864.7
73226.5
73617.5
74059.2
74517.8
75052.4
75562.9
76217.4
76726.5
77569.6
77918.8
79130.4
78868.9
80882.7
78819.5
72810.4
72324.5
72375
72156.1
72113.3
71966.7
71901.7
71793.7
71723.6
71637.6
71569.6
71497.4
71434.3
71371.5
71314.1
71258.6
71206.7
71157.1
71110.3
71065.8
71023.7
70983.7
70946
70910.4
70876.9
70845.6
70816.6
70790
70766.2
70745.4
70728.2
70714.9
70706.5
70703.5
70707
70718.1
70737.9
70767.8
70809.3
70864
70933.5
71019.7
71124.3
71249.6
71397.1
71569.3
71767.5
71994.8
72251.4
72541.7
72863.3
73224.7
73615.3
74056.4
74514.4
75048
75557.6
76210.1
76718.1
77556.2
77905.2
79103.5
78848.8
80826.4
78811.2
72809.4
72325
72375
72156.2
72113.3
71966.7
71901.7
71793.8
71723.6
71637.6
71569.7
71497.4
71434.4
71371.6
71314.2
71258.6
71206.7
71157.1
71110.3
71065.8
71023.7
70983.8
70946
70910.4
70876.9
70845.6
70816.6
70790
70766.2
70745.4
70728.2
70715
70706.5
70703.5
70707
70718.1
70737.9
70767.8
70809.2
70863.8
70933.3
71019.4
71124
71249.2
71396.6
71568.7
71766.8
71993.9
72250.3
72540.4
72861.6
73222.6
73612.7
74053.2
74510.6
75043
75551.7
76201.8
76708.7
77541.3
77890.1
79074.1
78826.5
80765.8
78800.6
72808.3
72325.6
72375.1
72156.2
72113.4
71966.8
71901.8
71793.8
71723.7
71637.7
71569.8
71497.5
71434.4
71371.6
71314.2
71258.7
71206.8
71157.1
71110.3
71065.8
71023.7
70983.8
70946.1
70910.4
70876.9
70845.6
70816.6
70790.1
70766.2
70745.5
70728.2
70715
70706.5
70703.5
70707
70718
70737.8
70767.7
70809.1
70863.7
70933.1
71019.2
71123.7
71248.7
71396.1
71568
71766
71992.8
72249
72538.8
72859.7
73220.2
73609.8
74049.6
74506.2
75037.3
75545
76192.5
76698.2
77524.8
77873.3
79041.9
78802
80700.9
78787.4
72807.1
72326.2
72375.1
72156.2
72113.4
71966.8
71901.8
71793.9
71723.8
71637.8
71569.8
71497.5
71434.5
71371.7
71314.3
71258.7
71206.8
71157.2
71110.4
71065.9
71023.8
70983.8
70946.1
70910.5
70877
70845.7
70816.6
70790.1
70766.3
70745.5
70728.2
70715
70706.5
70703.5
70707
70718
70737.7
70767.6
70808.9
70863.5
70932.8
71018.8
71123.3
71248.2
71395.4
71567.2
71765
71991.6
72247.5
72537
72857.5
73217.5
73606.5
74045.5
74501.3
75031
75537.5
76182.1
76686.4
77506.5
77854.8
79006.8
78775.2
80631.6
78771.4
72806
72326.8
72375.1
72156.3
72113.4
71966.8
71901.9
71793.9
71723.8
71637.9
71569.9
71497.6
71434.5
71371.7
71314.3
71258.8
71206.8
71157.2
71110.4
71065.9
71023.8
70983.9
70946.1
70910.5
70877
70845.7
70816.7
70790.1
70766.3
70745.5
70728.2
70715
70706.4
70703.5
70706.9
70717.9
70737.6
70767.4
70808.8
70863.3
70932.5
71018.5
71122.8
71247.7
71394.7
71566.3
71763.9
71990.3
72245.9
72534.9
72855
73214.4
73602.8
74040.9
74495.7
75023.8
75529.1
76170.6
76673.4
77486.4
77834.3
78968.7
78745.9
80557.8
78752.4
72804.7
72327.4
72375.2
72156.3
72113.5
71966.9
71901.9
71794
71723.9
71637.9
71570
71497.7
71434.6
71371.8
71314.4
71258.8
71206.9
71157.3
71110.5
71066
71023.8
70983.9
70946.2
70910.5
70877
70845.7
70816.7
70790.1
70766.3
70745.5
70728.2
70715
70706.4
70703.4
70706.9
70717.8
70737.5
70767.3
70808.6
70863
70932.2
71018.1
71122.3
71247
71393.9
71565.3
71762.6
71988.7
72244
72532.6
72852.1
73210.9
73598.6
74035.7
74489.5
75015.8
75519.7
76157.7
76658.9
77464.3
77811.8
78927.4
78713.9
80479.3
78730
72803.5
72328
72375.2
72156.3
72113.5
71966.9
71901.9
71794
71723.9
71638
71570
71497.7
71434.7
71371.9
71314.4
71258.9
71206.9
71157.3
71110.5
71066
71023.9
70984
70946.2
70910.6
70877.1
70845.8
70816.7
70790.2
70766.3
70745.5
70728.2
70715
70706.4
70703.4
70706.8
70717.7
70737.4
70767.1
70808.4
70862.7
70931.8
71017.6
71121.7
71246.2
71392.9
71564.1
71761.2
71987
72241.8
72530
72849
73207.1
73594
74029.9
74482.6
75007
75509.3
76143.6
76642.9
77440.1
77787.2
78882.9
78679.2
80396.1
78704
72802.2
72328.6
72375.3
72156.4
72113.5
71966.9
71902
71794.1
71724
71638
71570.1
71497.8
71434.7
71371.9
71314.5
71258.9
71207
71157.4
71110.6
71066.1
71023.9
70984
70946.3
70910.6
70877.1
70845.8
70816.8
70790.2
70766.3
70745.5
70728.2
70715
70706.4
70703.4
70706.7
70717.6
70737.3
70766.9
70808.1
70862.4
70931.4
71017
71121
71245.4
71391.9
71562.8
71759.6
71985
72239.4
72527
72845.4
73202.7
73588.7
74023.4
74474.8
74997.1
75497.7
76127.9
76625.3
77413.6
77760.2
78834.9
78641.4
80308
78674.1
72800.9
72329.3
72375.3
72156.4
72113.5
71967
71902
71794.1
71724
71638.1
71570.1
71497.8
71434.8
71372
71314.5
71259
71207.1
71157.4
71110.6
71066.1
71024
70984
70946.3
70910.7
70877.2
70845.8
70816.8
70790.2
70766.4
70745.6
70728.2
70714.9
70706.4
70703.3
70706.7
70717.5
70737.1
70766.7
70807.8
70862
70930.9
71016.4
71120.2
71244.4
71390.7
71561.3
71757.8
71982.8
72236.7
72523.7
72841.4
73197.9
73582.9
74016.2
74466.2
74986.2
75484.9
76110.7
76605.9
77384.8
77730.8
78783.3
78600.5
80215
78640
72799.5
72330
72375.4
72156.4
72113.6
71967
71902
71794.1
71724
71638.1
71570.2
71497.9
71434.8
71372
71314.6
71259
71207.1
71157.5
71110.7
71066.2
71024
70984.1
70946.3
70910.7
70877.2
70845.9
70816.8
70790.3
70766.4
70745.6
70728.2
70714.9
70706.3
70703.2
70706.6
70717.4
70736.9
70766.5
70807.5
70861.6
70930.4
71015.7
71119.4
71243.3
71389.3
71559.7
71755.7
71980.3
72233.7
72520.1
72837
73192.5
73576.4
74008.2
74456.7
74974.1
75470.8
76091.8
76584.6
77353.4
77698.8
78728.1
78556.3
80117
78601.5
72798.1
72330.7
72375.4
72156.5
72113.6
71967
71902
71794.1
71724.1
71638.1
71570.2
71497.9
71434.9
71372.1
71314.7
71259.1
71207.2
71157.5
71110.7
71066.2
71024.1
70984.1
70946.4
70910.7
70877.2
70845.9
70816.9
70790.3
70766.4
70745.6
70728.2
70714.9
70706.3
70703.2
70706.5
70717.2
70736.7
70766.2
70807.1
70861.1
70929.8
71014.9
71118.4
71242.1
71387.8
71557.8
71753.5
71977.5
72230.4
72516
72832.1
73186.5
73569.2
73999.3
74446.2
74960.8
75455.2
76071.1
76561.3
77319.3
77664
78668.9
78508.5
80014.1
78558.2
72796.6
72331.4
72375.5
72156.5
72113.6
71967
71902.1
71794.2
71724.1
71638.2
71570.2
71498
71434.9
71372.1
71314.7
71259.1
71207.2
71157.6
71110.8
71066.3
71024.1
70984.2
70946.4
70910.8
70877.3
70845.9
70816.9
70790.3
70766.4
70745.6
70728.2
70714.9
70706.3
70703.1
70706.4
70717.1
70736.5
70765.9
70806.7
70860.6
70929.1
71014.1
71117.3
71240.8
71386.2
71555.8
71751
71974.5
72226.6
72511.5
72826.7
73179.8
73561.3
73989.5
74434.5
74946.2
75438.1
76048.5
76535.8
77282.5
77626.2
78605.7
78457
79906
78509.9
72795.1
72332.2
72375.6
72156.5
72113.7
71967.1
71902.1
71794.2
71724.1
71638.2
71570.3
71498
71435
71372.2
71314.8
71259.2
71207.3
71157.6
71110.8
71066.3
71024.2
70984.2
70946.5
70910.8
70877.3
70846
70816.9
70790.3
70766.5
70745.6
70728.2
70714.9
70706.2
70703
70706.2
70716.9
70736.2
70765.5
70806.3
70860
70928.3
71013.1
71116.1
71239.3
71384.3
71553.5
71748.2
71971.1
72222.5
72506.5
72820.6
73172.5
73552.5
73978.8
74421.7
74930.1
75419.3
76023.8
76508
77242.6
77585.3
78538.3
78401.4
79792.9
78456.3
72793.5
72332.9
72375.6
72156.6
72113.7
71967.1
71902.1
71794.2
71724.1
71638.2
71570.3
71498
71435
71372.2
71314.8
71259.2
71207.3
71157.7
71110.9
71066.4
71024.2
70984.3
70946.5
70910.9
70877.4
70846
70817
70790.4
70766.5
70745.6
70728.2
70714.8
70706.1
70702.9
70706.1
70716.7
70735.9
70765.1
70805.7
70859.3
70927.5
71012.1
71114.8
71237.6
71382.3
71551
71745.1
71967.3
72218
72501
72814
73164.4
73542.8
73966.9
74407.6
74912.5
75398.7
75996.8
76477.6
77199.5
77540.9
78466.6
78341.6
79674.7
78397.1
72791.9
72333.7
72375.7
72156.6
72113.7
71967.1
71902.1
71794.2
71724.2
71638.2
71570.3
71498.1
71435
71372.3
71314.8
71259.3
71207.4
71157.7
71110.9
71066.4
71024.3
70984.3
70946.6
70910.9
70877.4
70846.1
70817
70790.4
70766.5
70745.6
70728.2
70714.8
70706.1
70702.8
70705.9
70716.4
70735.6
70764.7
70805.2
70858.6
70926.6
71010.9
71113.3
71235.8
71380
71548.2
71741.7
71963.2
72212.9
72494.8
72806.6
73155.5
73532.1
73953.8
74392.2
74893.2
75376.1
75967.5
76444.6
77153.1
77493
78390.4
78277.3
79551.2
78332
72790.3
72334.6
72375.7
72156.7
72113.7
71967.2
71902.2
71794.3
71724.2
71638.3
71570.3
71498.1
71435.1
71372.3
71314.9
71259.3
71207.4
71157.8
71111
71066.5
71024.3
70984.4
70946.6
70911
70877.5
70846.1
70817
70790.4
70766.5
70745.6
70728.2
70714.7
70706
70702.7
70705.7
70716.2
70735.2
70764.2
70804.5
70857.8
70925.5
71009.6
71111.7
71233.7
71377.5
71545.1
71738
71958.6
72207.4
72488.1
72798.5
73145.6
73520.4
73939.5
74375.2
74872.1
75351.5
75935.6
76408.7
77103.1
77441.2
78309.6
78208.3
79422.6
78260.8
72788.5
72335.4
72375.8
72156.7
72113.8
71967.2
71902.2
71794.3
71724.2
71638.3
71570.4
71498.1
71435.1
71372.3
71314.9
71259.4
71207.4
71157.8
71111
71066.5
71024.4
70984.4
70946.7
70911
70877.5
70846.1
70817.1
70790.4
70766.5
70745.6
70728.2
70714.7
70705.9
70702.5
70705.5
70715.9
70734.8
70763.7
70803.8
70856.9
70924.4
71008.1
71109.9
71231.5
71374.7
71541.7
71733.8
71953.5
72201.3
72480.7
72789.6
73134.8
73507.5
73923.8
74356.6
74849
75324.6
75900.9
76369.6
77049.4
77385.4
78223.9
78134.2
79288.8
78182.9
72786.8
72336.3
72375.8
72156.8
72113.8
71967.2
71902.2
71794.3
71724.2
71638.3
71570.4
71498.1
71435.1
71372.3
71314.9
71259.4
71207.5
71157.9
71111.1
71066.5
71024.4
70984.5
70946.7
70911.1
70877.5
70846.2
70817.1
70790.5
70766.5
70745.6
70728.1
70714.6
70705.8
70702.4
70705.3
70715.5
70734.4
70763.1
70803.1
70855.9
70923.1
71006.5
71107.8
71229
71371.7
71538
71729.2
71947.9
72194.5
72472.5
72779.8
73123
73493.3
73906.6
74336.2
74823.8
75295.2
75863.3
76327.3
76991.6
77325.2
78133.1
78054.7
79149.7
78098.2
72785
72337.1
72375.9
72156.8
72113.9
71967.2
71902.2
71794.3
71724.2
71638.3
71570.4
71498.1
71435.1
71372.4
71314.9
71259.4
71207.5
71157.9
71111.1
71066.6
71024.5
70984.5
70946.7
70911.1
70877.6
70846.2
70817.1
70790.5
70766.5
70745.6
70728.1
70714.5
70705.6
70702.2
70705
70715.2
70733.9
70762.4
70802.2
70854.8
70921.7
71004.8
71105.6
71226.3
71368.3
71533.8
71724.2
71941.8
72187.1
72463.6
72769
73110
73477.8
73887.7
74313.9
74796.3
75263.2
75822.6
76281.4
76929.7
77260.4
78037.2
77969.7
79005.3
78006.3
72783.1
72338.1
72376
72156.9
72113.9
71967.3
71902.3
71794.4
71724.3
71638.3
71570.4
71498.2
71435.1
71372.4
71315
71259.4
71207.5
71157.9
71111.1
71066.6
71024.5
70984.5
70946.8
70911.1
70877.6
70846.2
70817.1
70790.5
70766.5
70745.6
70728
70714.4
70705.5
70701.9
70704.7
70714.8
70733.3
70761.7
70801.3
70853.5
70920.2
71002.8
71103.2
71223.3
71364.6
71529.3
71718.6
71935.1
72179
72453.7
72757.2
73095.7
73460.8
73867.1
74289.5
74766.4
75228.3
75778.5
76231.6
76863.2
77190.7
77935.9
77878.7
78855.4
77906.8
72781.2
72339
72376
72156.9
72113.9
71967.3
71902.3
71794.4
71724.3
71638.4
71570.4
71498.2
71435.2
71372.4
71315
71259.4
71207.5
71157.9
71111.2
71066.7
71024.5
70984.6
70946.8
70911.2
70877.6
70846.2
70817.1
70790.5
70766.5
70745.5
70727.9
70714.3
70705.3
70701.7
70704.4
70714.3
70732.7
70760.9
70800.2
70852.2
70918.5
71000.7
71100.6
71220
71360.5
71524.3
71712.6
71927.7
72170.1
72442.9
72744.3
73080.1
73442.2
73844.6
74262.9
74733.8
75190.4
75730.8
76177.8
76792.1
77115.7
77828.9
77781.4
78700.1
77799.3
72779.3
72340
72376.1
72157
72114
71967.4
71902.3
71794.4
71724.3
71638.4
71570.4
71498.2
71435.2
71372.4
71315
71259.5
71207.6
71158
71111.2
71066.6
71024.6
70984.6
70946.9
70911.2
70877.6
70846.3
70817.2
70790.5
70766.5
70745.4
70727.8
70714.2
70705.1
70701.4
70704
70713.8
70732
70760
70799.1
70850.8
70916.6
70998.4
71097.7
71216.4
71356.1
71518.9
71706
71919.7
72160.3
72431.2
72730.1
73063.1
73421.8
73820.1
74233.9
74698.4
75149.2
75679.2
76119.5
76715.9
77035.3
77716
77677.5
78539.1
77683.6
72777.2
72340.9
72376.2
72157
72114
71967.4
71902.4
71794.4
71724.3
71638.4
71570.5
71498.2
71435.2
71372.4
71315
71259.5
71207.6
71158
71111.2
71066.7
71024.5
70984.6
70946.9
70911.2
70877.7
70846.3
70817.1
70790.5
70766.4
70745.4
70727.8
70714.1
70704.9
70701.1
70703.5
70713.2
70731.3
70759
70797.8
70849.2
70914.6
70995.8
71094.5
71212.5
71351.3
71513
71698.7
71910.9
72149.7
72418.3
72714.7
73044.5
73399.7
73793.3
74202.3
74659.9
75104.4
75623.5
76056.6
76634.5
76948.9
77597.1
77566.6
78372.3
77559.5
72775.2
72341.9
72376.2
72157.1
72114.1
71967.4
71902.4
71794.5
71724.4
71638.4
71570.5
71498.2
71435.2
71372.4
71315
71259.5
71207.6
71158
71111.2
71066.7
71024.6
70984.6
70946.9
70911.2
70877.7
70846.3
70817.2
70790.5
70766.4
70745.3
70727.6
70713.9
70704.7
70700.8
70703.1
70712.6
70730.5
70758
70796.4
70847.4
70912.4
70993
71091
71208.2
71346
71506.5
71690.9
71901.3
72138.1
72404.3
72697.9
73024.2
73375.6
73764.2
74168
74618.2
75055.9
75563.4
75988.6
76547.4
76856.2
77471.7
77448.4
78199.6
77426.6
72773
72343
72376.3
72157.2
72114.1
71967.5
71902.4
71794.5
71724.4
71638.5
71570.5
71498.3
71435.2
71372.5
71315
71259.5
71207.6
71158
71111.2
71066.7
71024.6
70984.6
70946.9
70911.2
70877.7
70846.3
70817.1
70790.5
70766.4
70745.3
70727.6
70713.7
70704.4
70700.4
70702.6
70711.9
70729.6
70756.8
70794.9
70845.5
70909.9
70989.9
71087.2
71203.4
71340.2
71499.4
71682.2
71890.8
72125.5
72389.1
72679.7
73002.3
73349.4
73732.6
74130.7
74573
75003.2
75498.6
75915.3
76454.3
76756.8
77339.5
77322.5
78020.5
77284.7
72770.9
72344
72376.3
72157.2
72114.1
71967.5
71902.5
71794.5
71724.4
71638.5
71570.5
71498.3
71435.2
71372.5
71315.1
71259.5
71207.6
71158
71111.2
71066.7
71024.6
70984.7
70946.9
70911.2
70877.7
70846.3
70817.1
70790.4
70766.3
70745.1
70727.4
70713.5
70704.2
70700.1
70702
70711.2
70728.6
70755.4
70793.2
70843.3
70907.2
70986.6
71083
71198.2
71333.8
71491.6
71672.7
71879.4
72111.7
72372.5
72659.7
72978.3
73320.9
73698.4
74090.2
74524
74946.3
75428.7
75836.2
76355
76650.4
77200.4
77188.4
77834.9
77133.6
72768.6
72345.1
72376.4
72157.3
72114.2
71967.5
71902.5
71794.6
71724.4
71638.5
71570.6
71498.3
71435.3
71372.5
71315.1
71259.5
71207.6
71158
71111.2
71066.7
71024.6
70984.7
70946.9
70911.2
70877.7
70846.2
70817.1
70790.3
70766.2
70745.1
70727.2
70713.2
70703.8
70699.5
70701.4
70710.4
70727.5
70754.1
70791.5
70841
70904.2
70982.8
71078.3
71192.5
71326.8
71483.1
71662.4
71866.8
72096.6
72354.3
72638
72952.2
73289.9
73661.2
74046.4
74471.2
74884.7
75353.6
75751
76249
76536.4
77053.7
77045.8
77642.4
76973.2
72766.4
72346.2
72376.5
72157.4
72114.2
71967.6
71902.5
71794.6
71724.5
71638.5
71570.6
71498.3
71435.3
71372.5
71315.1
71259.6
71207.6
71158
71111.2
71066.7
71024.6
70984.7
70946.9
70911.2
70877.7
70846.2
70817.1
70790.3
70766.1
70744.9
70727
70713
70703.4
70699.1
70700.7
70709.4
70726.3
70752.5
70789.4
70838.5
70901.1
70978.9
71073.4
71186.4
71319.2
71473.8
71651
71853.1
72080
72334.4
72614.2
72923.8
73256.1
73620.8
73998.9
74413.9
74818.2
75272.9
75659.5
76135.9
76414.5
76899.2
76894.3
77442.3
76803.6
72764
72347.3
72376.5
72157.4
72114.3
71967.6
71902.6
71794.6
71724.5
71638.6
71570.6
71498.3
71435.3
71372.5
71315.1
71259.6
71207.7
71158
71111.3
71066.7
71024.6
70984.7
70946.9
70911.2
70877.7
70846.2
70817
70790.2
70766
70744.8
70726.8
70712.7
70703
70698.5
70700
70708.5
70725.1
70750.9
70787.3
70835.7
70897.6
70974.5
71067.9
71179.7
71311
71463.7
71638.9
71838.3
72062.2
72312.8
72588.4
72892.8
73219.4
73576.9
73947.2
74352.1
74746.5
75186.2
75561.2
76015.6
76284.4
76736.5
76733.4
77234.3
76624.7
72761.6
72348.4
72376.6
72157.5
72114.3
71967.7
71902.6
71794.7
71724.5
71638.6
71570.6
71498.4
71435.3
71372.5
71315.1
71259.6
71207.7
71158.1
71111.3
71066.8
71024.6
70984.7
70946.9
70911.2
70877.6
70846.2
70817
70790.2
70765.9
70744.6
70726.6
70712.4
70702.6
70697.9
70699.2
70707.4
70723.7
70749.1
70785
70832.8
70893.9
70969.9
71062.2
71172.5
71302.2
71452.8
71625.6
71822.2
72042.8
72289.5
72560.5
72859.4
73179.6
73529.4
73891.2
74285.4
74669
75093.1
75455.8
75887.5
76145.7
76565.3
76562.9
77017.7
76436.7
72759.2
72349.6
72376.7
72157.6
72114.4
71967.7
71902.6
71794.7
71724.6
71638.6
71570.6
71498.4
71435.3
71372.6
71315.1
71259.6
71207.7
71158.1
71111.3
71066.8
71024.6
70984.7
70946.9
70911.2
70877.6
70846.2
70816.9
70790.1
70765.8
70744.5
70726.4
70712.1
70702.1
70697.3
70698.4
70706.4
70722.2
70747.2
70782.6
70829.7
70890
70965
71056.1
71164.9
71292.8
71441.4
71611.6
71805.2
72022.1
72264.4
72530.4
72823.3
73136.8
73478.2
73831
74213.5
74585.5
74993.5
75342.9
75751.6
75998.2
76385.4
76382.5
76792.2
76239.9
72756.7
72350.8
72376.7
72157.7
72114.4
71967.8
71902.7
71794.7
71724.6
71638.6
71570.7
71498.4
71435.4
71372.6
71315.2
71259.6
71207.7
71158.1
71111.3
71066.8
71024.7
70984.7
70946.9
70911.2
70877.6
70846.2
70816.9
70790
70765.7
70744.3
70726.1
70711.7
70701.7
70696.7
70697.5
70705.2
70720.7
70745.2
70780
70826.4
70885.9
70959.8
71049.6
71156.9
71282.9
71429.2
71596.7
71787.1
72000.2
72238
72498.6
72784.9
73091
73423.3
73766.4
74136.4
74496.1
74887
75222.2
75607.7
75841.6
76196.7
76192.2
76557.3
76034.3
72754.2
72352
72376.8
72157.7
72114.5
71967.8
71902.7
71794.8
71724.6
71638.7
71570.7
71498.4
71435.4
71372.6
71315.2
71259.6
71207.7
71158.1
71111.3
71066.8
71024.7
70984.7
70946.9
70911.2
70877.6
70846.1
70816.9
70789.9
70765.6
70744.1
70725.9
70711.4
70701.2
70695.9
70696.6
70703.9
70719
70743.1
70777.2
70822.9
70881.4
70954.1
71042.6
71148.2
71272.2
71416.2
71580.9
71767.8
71976.9
72209.9
72464.9
72744.4
73042.7
73365.4
73697.8
74054.5
74400.7
74773.7
75093.6
75455.2
75675.8
75999.3
75992.3
76313.1
75819.5
72751.6
72353.2
72376.9
72157.8
72114.5
71967.9
71902.8
71794.8
71724.7
71638.7
71570.7
71498.5
71435.4
71372.6
71315.2
71259.7
71207.7
71158.1
71111.3
71066.8
71024.7
70984.7
70946.9
70911.2
70877.6
70846.1
70816.8
70789.9
70765.5
70743.9
70725.6
70711
70700.6
70695.2
70695.5
70702.5
70717.2
70740.7
70774.2
70819.1
70876.6
70948.1
71035.1
71139
71260.9
71402.3
71563.9
71747.3
71952.1
72180.1
72429.1
72701.5
72991.6
73304.4
73625.7
73968.4
74300.2
74654.1
74957.5
75294.4
75500.4
75792.7
75782.7
76060.6
75596.4
72749
72354.4
72376.9
72157.9
72114.6
71967.9
71902.8
71794.8
71724.7
71638.7
71570.8
71498.5
71435.4
71372.7
71315.2
71259.7
71207.8
71158.1
71111.3
71066.8
71024.7
70984.7
70946.9
70911.2
70877.6
70846.1
70816.7
70789.8
70765.3
70743.7
70725.3
70710.5
70700
70694.4
70694.4
70701.1
70715.3
70738.3
70771.1
70815
70871.5
70941.7
71027.1
71129.1
71248.7
71387.4
71545.9
71725.4
71925.7
72148.3
72391.1
72656
72937.5
73239.9
73549.7
73878.1
74194.9
74529.3
74814.9
75126.4
75316.2
75577.2
75562.5
75799.2
75364.9
72746.4
72355.7
72377
72158
72114.6
71968
71902.8
71794.9
71724.7
71638.8
71570.8
71498.5
71435.5
71372.7
71315.3
71259.7
71207.8
71158.2
71111.4
71066.8
71024.7
70984.7
70946.9
70911.2
70877.6
70846
70816.7
70789.7
70765.2
70743.5
70725
70710.1
70699.4
70693.5
70693.3
70699.5
70713.3
70735.6
70767.6
70810.7
70866
70934.8
71018.6
71118.5
71235.8
71371.6
71526.6
71702.1
71897.6
72114.5
72350.7
72607.8
72880.3
73171.8
73469.6
73783.2
74084.7
74399.2
74666.6
74952.3
75124.6
75354
75332.9
75528.6
75124.9
72743.7
72357
72377
72158.1
72114.7
71968
71902.9
71794.9
71724.8
71638.8
71570.8
71498.5
71435.5
71372.7
71315.3
71259.7
71207.8
71158.2
71111.4
71066.9
71024.7
70984.7
70946.9
70911.2
70877.5
70846
70816.6
70789.6
70765
70743.2
70724.6
70709.6
70698.7
70692.6
70692
70697.9
70711.1
70732.8
70764
70806
70860.1
70927.5
71009.4
71107.2
71221.9
71354.7
71506.1
71677.2
71867.8
72078.6
72307.8
72556.7
72819.7
73100
73385.2
73683.6
73969.1
74263.6
74512.4
74772.5
74926.6
75124.6
75095.3
75250
74877.3
72740.9
72358.2
72377.1
72158.2
72114.8
71968.1
71902.9
71795
71724.8
71638.8
71570.8
71498.6
71435.5
71372.7
71315.3
71259.7
71207.8
71158.2
71111.4
71066.9
71024.7
70984.8
70946.9
70911.2
70877.5
70845.9
70816.5
70789.4