/*--------------------------------*- C++ -*----------------------------------*\
| =========                 |                                                 |
| \\      /  F ield         | OpenFOAM: The Open Source CFD Toolbox           |
|  \\    /   O peration     | Version:  v1906                                 |
|   \\  /    A nd           | Web:      www.OpenFOAM.com                      |
|    \\/     M anipulation  |                                                 |
\*---------------------------------------------------------------------------*/
FoamFile
{
    version     2.0;
    format      ascii;
    class       surfaceScalarField;
    location    "0.2";
    object      phi;
}
// * * * * * * * * * * * * * * * * * * * * * * * * * * * * * * * * * * * * * //

dimensions      [0 3 -1 0 0 0 0];
oriented        oriented;


internalField   nonuniform List<scalar> 
159400
(
2.76245e-09
2.40059e-09
2.32254e-09
4.39917e-10
2.23341e-09
8.91284e-11
2.16737e-09
6.60322e-11
2.11391e-09
5.3468e-11
2.07295e-09
4.09601e-11
2.04077e-09
3.21807e-11
2.01477e-09
2.59998e-11
1.99327e-09
2.14977e-11
1.97521e-09
1.80587e-11
1.95981e-09
1.54005e-11
1.94653e-09
1.32768e-11
1.93496e-09
1.15716e-11
1.9248e-09
1.01642e-11
1.9158e-09
8.99648e-12
1.90779e-09
8.01031e-12
1.90062e-09
7.17434e-12
1.89416e-09
6.45709e-12
1.88832e-09
5.83938e-12
1.88301e-09
5.30425e-12
1.87817e-09
4.84016e-12
1.87374e-09
4.43698e-12
1.86965e-09
4.08949e-12
1.86585e-09
3.79358e-12
1.86231e-09
3.54725e-12
1.85896e-09
3.35029e-12
1.85575e-09
3.20545e-12
1.85263e-09
3.11756e-12
1.84954e-09
3.09129e-12
1.84641e-09
3.13419e-12
1.84315e-09
3.25704e-12
1.83968e-09
3.47085e-12
1.83589e-09
3.78707e-12
1.83167e-09
4.21923e-12
1.82689e-09
4.78257e-12
1.8214e-09
5.4926e-12
1.81503e-09
6.36457e-12
1.80762e-09
7.415e-12
1.79896e-09
8.66108e-12
1.78884e-09
1.01202e-11
1.77703e-09
1.18091e-11
1.76328e-09
1.37457e-11
1.74734e-09
1.59471e-11
1.7289e-09
1.84359e-11
1.70767e-09
2.12292e-11
1.68332e-09
2.43555e-11
1.65549e-09
2.78291e-11
1.62379e-09
3.16975e-11
1.58783e-09
3.59631e-11
1.54711e-09
4.0719e-11
1.50119e-09
4.59198e-11
1.44939e-09
5.1793e-11
1.39126e-09
5.81307e-11
1.32571e-09
6.55527e-11
1.2524e-09
7.3313e-11
1.16914e-09
8.32578e-11
1.07633e-09
9.28075e-11
9.68279e-10
1.08054e-10
8.45842e-10
1.22437e-10
6.91914e-10
1.53928e-10
5.26859e-10
1.65055e-10
2.9769e-10
2.29169e-10
1.39722e-10
1.57968e-10
-1.26571e-10
2.66293e-10
1.68985e-10
-2.95556e-10
3.7867e-09
3.98243e-09
3.26353e-09
9.63087e-10
3.11566e-09
2.3699e-10
3.0332e-09
1.48497e-10
2.96925e-09
1.17413e-10
2.91927e-09
9.09457e-11
2.87971e-09
7.17344e-11
2.8478e-09
5.79163e-11
2.82144e-09
4.78523e-11
2.79934e-09
4.01627e-11
2.78051e-09
3.42341e-11
2.76429e-09
2.94962e-11
2.75016e-09
2.56979e-11
2.73776e-09
2.25636e-11
2.72679e-09
1.99658e-11
2.71703e-09
1.77723e-11
2.70829e-09
1.59141e-11
2.70043e-09
1.43202e-11
2.69332e-09
1.29478e-11
2.68686e-09
1.17591e-11
2.68098e-09
1.07282e-11
2.67558e-09
9.83256e-12
2.67061e-09
9.06019e-12
2.666e-09
8.40175e-12
2.6617e-09
7.8527e-12
2.65763e-09
7.41225e-12
2.65375e-09
7.0859e-12
2.64999e-09
6.88399e-12
2.64626e-09
6.81674e-12
2.6425e-09
6.90006e-12
2.6386e-09
7.15704e-12
2.63445e-09
7.6116e-12
2.62995e-09
8.28851e-12
2.62496e-09
9.21686e-12
2.61931e-09
1.04295e-11
2.61284e-09
1.19601e-11
2.60536e-09
1.38417e-11
2.59667e-09
1.611e-11
2.58653e-09
1.88022e-11
2.57469e-09
2.19561e-11
2.56089e-09
2.56085e-11
2.54484e-09
2.97986e-11
2.52622e-09
3.45638e-11
2.50471e-09
3.99538e-11
2.47993e-09
4.60071e-11
2.45149e-09
5.27878e-11
2.419e-09
6.03284e-11
2.38196e-09
6.87369e-11
2.3399e-09
7.80205e-11
2.29222e-09
8.83929e-11
2.23839e-09
9.97562e-11
2.17755e-09
1.12629e-10
2.10913e-09
1.26556e-10
2.03174e-09
1.42938e-10
1.94492e-09
1.60136e-10
1.84589e-09
1.82291e-10
1.73495e-09
2.03742e-10
1.60508e-09
2.37929e-10
1.46017e-09
2.67339e-10
1.27984e-09
3.3426e-10
1.08398e-09
3.60914e-10
7.97365e-10
5.15785e-10
5.51814e-10
4.03519e-10
1.98016e-11
7.98306e-10
4.35805e-10
-2.47018e-10
4.35409e-09
5.21052e-09
3.80659e-09
1.51059e-09
3.61888e-09
4.24696e-10
3.52259e-09
2.44789e-10
3.45176e-09
1.8825e-10
3.39646e-09
1.4624e-10
3.35258e-09
1.15616e-10
3.31717e-09
9.33233e-11
3.28795e-09
7.70719e-11
3.26347e-09
6.46502e-11
3.24261e-09
5.50874e-11
3.22466e-09
4.74448e-11
3.20904e-09
4.13236e-11
3.19533e-09
3.62734e-11
3.1832e-09
3.20907e-11
3.17242e-09
2.85595e-11
3.16276e-09
2.55693e-11
3.15408e-09
2.30047e-11
3.14623e-09
2.07974e-11
3.1391e-09
1.88853e-11
3.1326e-09
1.72273e-11
3.12665e-09
1.57867e-11
3.12116e-09
1.45439e-11
3.11608e-09
1.34837e-11
3.11134e-09
1.25985e-11
3.10686e-09
1.18867e-11
3.10259e-09
1.13567e-11
3.09845e-09
1.10244e-11
3.09436e-09
1.0906e-11
3.09023e-09
1.10264e-11
3.08597e-09
1.14217e-11
3.08145e-09
1.21295e-11
3.07655e-09
1.3189e-11
3.07112e-09
1.46458e-11
3.065e-09
1.65516e-11
3.058e-09
1.89597e-11
3.04992e-09
2.19221e-11
3.04054e-09
2.54948e-11
3.0296e-09
2.97362e-11
3.01685e-09
3.47064e-11
3.002e-09
4.04631e-11
2.98473e-09
4.70685e-11
2.96471e-09
5.45814e-11
2.94158e-09
6.30802e-11
2.91496e-09
7.26259e-11
2.88443e-09
8.33205e-11
2.84954e-09
9.52156e-11
2.8098e-09
1.08483e-10
2.76468e-09
1.23136e-10
2.71356e-09
1.39514e-10
2.65585e-09
1.57465e-10
2.59067e-09
1.77811e-10
2.51738e-09
1.99844e-10
2.43455e-09
2.25772e-10
2.34164e-09
2.53042e-10
2.23579e-09
2.88148e-10
2.11723e-09
3.22297e-10
1.97881e-09
3.76354e-10
1.82477e-09
4.21372e-10
1.63424e-09
5.2479e-10
1.42727e-09
5.6789e-10
1.12634e-09
8.16714e-10
8.47937e-10
6.81921e-10
2.51865e-10
1.39438e-09
7.9263e-10
-1.04961e-10
4.82668e-09
6.18819e-09
4.25611e-09
2.08115e-09
4.02972e-09
6.5109e-10
3.91726e-09
3.57248e-10
3.83892e-09
2.66589e-10
3.77848e-09
2.06682e-10
3.73051e-09
1.63584e-10
3.69181e-09
1.32022e-10
3.6599e-09
1.08987e-10
3.63317e-09
9.13759e-11
3.61043e-09
7.78321e-11
3.59086e-09
6.70101e-11
3.57384e-09
5.83485e-11
3.55891e-09
5.12043e-11
3.54571e-09
4.52906e-11
3.53397e-09
4.02994e-11
3.52346e-09
3.60741e-11
3.51402e-09
3.24512e-11
3.50548e-09
2.93335e-11
3.49773e-09
2.66332e-11
3.49067e-09
2.42916e-11
3.4842e-09
2.2257e-11
3.47824e-09
2.05013e-11
3.47272e-09
1.90024e-11
3.46757e-09
1.77494e-11
3.46272e-09
1.67399e-11
3.45809e-09
1.59845e-11
3.45361e-09
1.55053e-11
3.44919e-09
1.53247e-11
3.44474e-09
1.54768e-11
3.44015e-09
1.6011e-11
3.4353e-09
1.69799e-11
3.43005e-09
1.84375e-11
3.42425e-09
2.04468e-11
3.41772e-09
2.30793e-11
3.41027e-09
2.64087e-11
3.40169e-09
3.05072e-11
3.39173e-09
3.54521e-11
3.38014e-09
4.13242e-11
3.36664e-09
4.82063e-11
3.35093e-09
5.61786e-11
3.33267e-09
6.53269e-11
3.31152e-09
7.57326e-11
3.2871e-09
8.75038e-11
3.259e-09
1.00725e-10
3.22678e-09
1.15537e-10
3.18998e-09
1.32012e-10
3.14808e-09
1.50387e-10
3.10053e-09
1.70681e-10
3.04668e-09
1.93365e-10
2.98592e-09
2.1823e-10
2.91732e-09
2.46412e-10
2.84022e-09
2.7694e-10
2.75314e-09
3.1285e-10
2.65553e-09
3.50658e-10
2.54443e-09
3.99243e-10
2.42007e-09
4.46663e-10
2.27523e-09
5.21194e-10
2.11388e-09
5.82718e-10
1.91531e-09
7.23365e-10
1.69895e-09
7.84241e-10
1.38932e-09
1.12635e-09
1.08945e-09
9.81787e-10
4.66121e-10
2.01771e-09
1.20469e-09
5.40593e-11
5.25636e-09
6.96718e-09
4.67351e-09
2.66401e-09
4.4067e-09
9.17894e-10
4.27539e-09
4.88561e-10
4.18835e-09
3.53624e-10
4.12242e-09
2.72615e-10
4.07025e-09
2.15757e-10
4.02819e-09
1.74079e-10
3.99354e-09
1.43641e-10
3.96454e-09
1.20369e-10
3.93989e-09
1.02487e-10
3.9187e-09
8.82042e-11
3.90026e-09
7.67797e-11
3.88411e-09
6.73602e-11
3.86983e-09
5.95672e-11
3.85714e-09
5.2992e-11
3.84579e-09
4.74277e-11
3.83558e-09
4.26578e-11
3.82636e-09
3.85538e-11
3.81799e-09
3.49998e-11
3.81037e-09
3.19181e-11
3.80338e-09
2.92401e-11
3.79696e-09
2.69286e-11
3.791e-09
2.49538e-11
3.78545e-09
2.33011e-11
3.78023e-09
2.19667e-11
3.77525e-09
2.09638e-11
3.77043e-09
2.03202e-11
3.76569e-09
2.00648e-11
3.76093e-09
2.02411e-11
3.75602e-09
2.09129e-11
3.75086e-09
2.21475e-11
3.74528e-09
2.40147e-11
3.73913e-09
2.65956e-11
3.73223e-09
2.99822e-11
3.72437e-09
3.42696e-11
3.71532e-09
3.9551e-11
3.70485e-09
4.59258e-11
3.69268e-09
5.34977e-11
3.67851e-09
6.23737e-11
3.66203e-09
7.26569e-11
3.6429e-09
8.44577e-11
3.62075e-09
9.78805e-11
3.59519e-09
1.13064e-10
3.5658e-09
1.30117e-10
3.53211e-09
1.49221e-10
3.49366e-09
1.70468e-10
3.44988e-09
1.94163e-10
3.40023e-09
2.20329e-10
3.34403e-09
2.49572e-10
3.28063e-09
2.81627e-10
3.2091e-09
3.17946e-10
3.12874e-09
3.57295e-10
3.03804e-09
4.03546e-10
2.93642e-09
4.52281e-10
2.82089e-09
5.14771e-10
2.69162e-09
5.75933e-10
2.54142e-09
6.714e-10
2.374e-09
7.50132e-10
2.16889e-09
9.2848e-10
1.94471e-09
1.00842e-09
1.62925e-09
1.44181e-09
1.31383e-09
1.2972e-09
6.92735e-10
2.6388e-09
1.66686e-09
2.30562e-10
5.66369e-09
7.57904e-09
5.0807e-09
3.247e-09
4.77191e-09
1.22669e-09
4.61881e-09
6.41661e-10
4.52159e-09
4.50841e-10
4.44959e-09
3.44612e-10
4.39296e-09
2.72393e-10
4.34738e-09
2.19655e-10
4.30987e-09
1.8115e-10
4.27852e-09
1.51718e-10
4.25189e-09
1.29119e-10
4.22902e-09
1.1108e-10
4.20914e-09
9.66598e-11
4.19172e-09
8.47761e-11
4.17634e-09
7.49493e-11
4.16267e-09
6.66616e-11
4.15045e-09
5.96502e-11
4.13946e-09
5.36419e-11
4.12954e-09
4.84734e-11
4.12054e-09
4.39983e-11
4.11234e-09
4.01179e-11
4.10484e-09
3.67458e-11
4.09793e-09
3.38344e-11
4.09154e-09
3.13455e-11
4.08558e-09
2.92599e-11
4.07998e-09
2.75725e-11
4.07464e-09
2.62987e-11
4.06949e-09
2.54719e-11
4.06443e-09
2.51276e-11
4.05935e-09
2.53194e-11
4.05414e-09
2.61252e-11
4.04866e-09
2.76279e-11
4.04276e-09
2.99136e-11
4.03627e-09
3.3082e-11
4.02901e-09
3.72463e-11
4.02075e-09
4.2524e-11
4.01127e-09
4.90297e-11
4.00031e-09
5.68858e-11
3.98759e-09
6.62198e-11
3.9728e-09
7.71632e-11
3.95562e-09
8.98429e-11
3.93568e-09
1.04395e-10
3.91261e-09
1.20947e-10
3.88601e-09
1.3967e-10
3.85543e-09
1.60696e-10
3.8204e-09
1.84248e-10
3.78043e-09
2.10439e-10
3.73495e-09
2.39643e-10
3.68339e-09
2.71889e-10
3.62505e-09
3.07917e-10
3.55927e-09
3.47406e-10
3.48508e-09
3.92129e-10
3.40179e-09
4.40586e-10
3.30785e-09
4.97493e-10
3.20264e-09
5.5749e-10
3.08316e-09
6.34251e-10
2.94953e-09
7.09557e-10
2.79458e-09
8.26351e-10
2.62187e-09
9.22846e-10
2.41105e-09
1.1393e-09
2.18014e-09
1.23933e-09
1.86112e-09
1.76084e-09
1.53441e-09
1.62391e-09
9.30968e-10
3.24225e-09
2.15602e-09
4.4181e-10
6.05856e-09
8.04579e-09
5.48769e-09
3.81786e-09
5.1373e-09
1.57708e-09
4.95884e-09
8.20118e-10
4.84976e-09
5.59925e-10
4.77093e-09
4.23442e-10
4.70945e-09
3.33871e-10
4.66012e-09
2.68986e-10
4.61958e-09
2.21682e-10
4.58575e-09
1.85552e-10
4.55704e-09
1.5783e-10
4.5324e-09
1.35721e-10
4.511e-09
1.18057e-10
4.49227e-09
1.03509e-10
4.47573e-09
9.14851e-11
4.46104e-09
8.13494e-11
4.44792e-09
7.27775e-11
4.43612e-09
6.54346e-11
4.42548e-09
5.91195e-11
4.41582e-09
5.36525e-11
4.40703e-09
4.89124e-11
4.39898e-09
4.4793e-11
4.39158e-09
4.12356e-11
4.38473e-09
3.81925e-11
4.37835e-09
3.56393e-11
4.37236e-09
3.35693e-11
4.36666e-09
3.19997e-11
4.36116e-09
3.09695e-11
4.35576e-09
3.05211e-11
4.35037e-09
3.0718e-11
4.34484e-09
3.16528e-11
4.33904e-09
3.34245e-11
4.33282e-09
3.61356e-11
4.326e-09
3.99053e-11
4.31837e-09
4.48686e-11
4.30973e-09
5.11658e-11
4.29983e-09
5.89341e-11
4.28839e-09
6.83192e-11
4.27514e-09
7.94732e-11
4.25975e-09
9.25527e-11
4.24189e-09
1.07709e-10
4.22118e-09
1.25105e-10
4.19723e-09
1.44891e-10
4.16963e-09
1.67271e-10
4.13792e-09
1.92403e-10
4.10162e-09
2.2055e-10
4.06021e-09
2.51847e-10
4.01312e-09
2.86738e-10
3.95975e-09
3.25255e-10
3.89939e-09
3.6828e-10
3.83137e-09
4.15429e-10
3.75469e-09
4.68804e-10
3.66865e-09
5.26632e-10
3.57165e-09
5.94483e-10
3.46309e-09
6.6605e-10
3.33993e-09
7.57419e-10
3.20225e-09
8.47232e-10
3.04289e-09
9.85715e-10
2.86529e-09
1.10044e-09
2.64924e-09
1.35534e-09
2.41228e-09
1.4763e-09
2.09117e-09
2.08194e-09
1.75607e-09
1.95901e-09
1.17664e-09
3.82168e-09
2.65286e-09
6.79797e-10
6.45013e-09
8.38066e-09
5.89913e-09
4.36886e-09
5.50955e-09
1.96666e-09
5.30222e-09
1.02745e-09
5.17947e-09
6.82675e-10
5.09286e-09
5.10054e-10
5.02605e-09
4.00684e-10
4.97265e-09
3.22379e-10
4.92888e-09
2.65457e-10
4.89239e-09
2.22039e-10
4.86147e-09
1.88755e-10
4.83495e-09
1.62235e-10
4.81195e-09
1.41061e-10
4.79182e-09
1.23634e-10
4.77407e-09
1.09238e-10
4.75831e-09
9.71101e-11
4.74423e-09
8.68569e-11
4.73159e-09
7.80772e-11
4.72018e-09
7.05284e-11
4.70984e-09
6.39949e-11
4.70042e-09
5.83304e-11
4.6918e-09
5.34076e-11
4.68388e-09
4.91555e-11
4.67656e-09
4.55157e-11
4.66974e-09
4.24581e-11
4.66334e-09
3.99741e-11
4.65726e-09
3.80823e-11
4.6514e-09
3.68272e-11
4.64566e-09
3.62577e-11
4.63993e-09
3.6448e-11
4.63408e-09
3.75056e-11
4.62796e-09
3.95455e-11
4.62141e-09
4.26876e-11
4.61424e-09
4.70709e-11
4.60626e-09
5.28528e-11
4.59722e-09
6.01972e-11
4.58689e-09
6.92643e-11
4.57499e-09
8.02239e-11
4.56121e-09
9.32533e-11
4.54523e-09
1.08535e-10
4.52669e-09
1.26246e-10
4.50522e-09
1.46574e-10
4.48042e-09
1.69696e-10
4.45184e-09
1.95848e-10
4.41903e-09
2.25212e-10
4.38148e-09
2.58096e-10
4.33868e-09
2.94655e-10
4.29001e-09
3.35403e-10
4.23489e-09
3.80378e-10
4.17257e-09
4.30601e-10
4.10237e-09
4.85628e-10
4.02328e-09
5.47891e-10
3.93457e-09
6.15343e-10
3.83464e-09
6.94414e-10
3.72285e-09
7.77843e-10
3.59613e-09
8.84139e-10
3.45455e-09
9.88803e-10
3.29092e-09
1.14935e-09
3.10863e-09
1.28273e-09
2.88784e-09
1.57614e-09
2.64526e-09
1.71887e-09
2.32267e-09
2.40454e-09
1.98098e-09
2.3007e-09
1.42708e-09
4.37558e-09
3.14697e-09
9.3298e-10
6.83441e-09
8.60129e-09
6.31445e-09
4.88883e-09
5.89256e-09
2.38854e-09
5.65397e-09
1.26604e-09
5.51518e-09
8.21466e-10
5.41966e-09
6.05583e-10
5.3469e-09
4.7344e-10
5.28907e-09
3.80208e-10
5.24179e-09
3.12741e-10
5.20244e-09
2.61382e-10
5.16915e-09
2.22052e-10
5.14063e-09
1.90753e-10
5.11591e-09
1.6578e-10
5.0943e-09
1.45241e-10
5.07526e-09
1.28286e-10
5.05836e-09
1.1401e-10
5.04327e-09
1.01946e-10
5.02972e-09
9.16205e-11
5.01751e-09
8.2745e-11
5.00644e-09
7.50652e-11
4.99636e-09
6.84073e-11
4.98715e-09
6.26213e-11
4.97868e-09
5.76226e-11
4.97085e-09
5.3341e-11
4.96357e-09
4.97399e-11
4.95674e-09
4.68083e-11
4.95025e-09
4.4566e-11
4.94402e-09
4.30625e-11
4.93792e-09
4.23537e-11
4.93185e-09
4.25243e-11
4.92566e-09
4.36969e-11
4.9192e-09
4.60034e-11
4.9123e-09
4.95808e-11
4.90479e-09
5.45886e-11
4.89643e-09
6.12076e-11
4.887e-09
6.96256e-11
4.87624e-09
8.00266e-11
4.86386e-09
9.26053e-11
4.84955e-09
1.07564e-10
4.83297e-09
1.25113e-10
4.81376e-09
1.45454e-10
4.79153e-09
1.68802e-10
4.76587e-09
1.9536e-10
4.73632e-09
2.25396e-10
4.70242e-09
2.59118e-10
4.66363e-09
2.96879e-10
4.61944e-09
3.38852e-10
4.56921e-09
3.85626e-10
4.51235e-09
4.37241e-10
4.44809e-09
4.9486e-10
4.37574e-09
5.57979e-10
4.29427e-09
6.29362e-10
4.20293e-09
7.06685e-10
4.1001e-09
7.97246e-10
3.98512e-09
8.92825e-10
3.85489e-09
1.01437e-09
3.70947e-09
1.13422e-09
3.54159e-09
1.31723e-09
3.35465e-09
1.46967e-09
3.1296e-09
1.80119e-09
2.8817e-09
1.96677e-09
2.55769e-09
2.72855e-09
2.21069e-09
2.6477e-09
1.68145e-09
4.90481e-09
3.63498e-09
1.19344e-09
7.19898e-09
8.73812e-09
6.72982e-09
5.35799e-09
6.28878e-09
2.82959e-09
6.01807e-09
1.53674e-09
5.86017e-09
9.79373e-10
5.75443e-09
7.11324e-10
5.675e-09
5.52865e-10
5.61228e-09
4.42924e-10
5.56118e-09
3.63849e-10
5.51874e-09
3.03819e-10
5.48288e-09
2.5791e-10
5.45221e-09
2.21425e-10
5.42565e-09
1.92338e-10
5.40245e-09
1.68437e-10
5.38202e-09
1.48718e-10
5.3639e-09
1.32127e-10
5.34774e-09
1.18113e-10
5.33324e-09
1.06124e-10
5.32016e-09
9.58215e-11
5.30831e-09
8.69098e-11
5.29754e-09
7.91846e-11
5.28769e-09
7.24712e-11
5.27864e-09
6.66706e-11
5.27028e-09
6.16988e-11
5.26251e-09
5.75122e-11
5.25522e-09
5.4097e-11
5.24831e-09
5.14738e-11
5.24168e-09
4.96967e-11
5.2352e-09
4.88285e-11
5.22876e-09
4.89648e-11
5.22222e-09
5.02436e-11
5.21541e-09
5.28134e-11
5.20816e-09
5.68295e-11
5.20027e-09
6.2472e-11
5.19154e-09
6.99456e-11
5.1817e-09
7.94631e-11
5.17049e-09
9.12325e-11
5.15762e-09
1.05474e-10
5.14277e-09
1.22416e-10
5.12559e-09
1.42297e-10
5.1057e-09
1.65343e-10
5.0827e-09
1.91798e-10
5.05617e-09
2.21891e-10
5.02564e-09
2.55924e-10
4.99063e-09
2.9413e-10
4.9506e-09
3.36906e-10
4.90501e-09
3.84447e-10
4.85322e-09
4.37414e-10
4.79461e-09
4.95851e-10
4.72841e-09
5.61064e-10
4.6539e-09
6.32487e-10
4.57004e-09
7.13222e-10
4.47606e-09
8.00663e-10
4.37032e-09
9.02985e-10
4.25214e-09
1.011e-09
4.11838e-09
1.14812e-09
3.96908e-09
1.28352e-09
3.79696e-09
1.48935e-09
3.60535e-09
1.66128e-09
3.37632e-09
2.03023e-09
3.12352e-09
2.21956e-09
2.79811e-09
3.05396e-09
2.44668e-09
2.99913e-09
1.94013e-09
5.41137e-09
4.11632e-09
1.45879e-09
7.54967e-09
8.81622e-09
7.14448e-09
5.76319e-09
6.69932e-09
3.27474e-09
6.3975e-09
1.83856e-09
6.21736e-09
1.15951e-09
6.09966e-09
8.2903e-10
6.0127e-09
6.39822e-10
5.94456e-09
5.1106e-10
5.88926e-09
4.1915e-10
5.84345e-09
3.49627e-10
5.80482e-09
2.96546e-10
5.77181e-09
2.54429e-10
5.74327e-09
2.20883e-10
5.71836e-09
1.93342e-10
5.69644e-09
1.70639e-10
5.67702e-09
1.5155e-10
5.6597e-09
1.35434e-10
5.64417e-09
1.21654e-10
5.63017e-09
1.09818e-10
5.6175e-09
9.95818e-11
5.60597e-09
9.07098e-11
5.59545e-09
8.30001e-11
5.58578e-09
7.63379e-11
5.57685e-09
7.0624e-11
5.56856e-09
6.58067e-11
5.56079e-09
6.18693e-11
5.55343e-09
5.88323e-11
5.54637e-09
5.67542e-11
5.53949e-09
5.57046e-11
5.53267e-09
5.57904e-11
5.52575e-09
5.7165e-11
5.51857e-09
5.99941e-11
5.51095e-09
6.4451e-11
5.50268e-09
7.07376e-11
5.49354e-09
7.90828e-11
5.48328e-09
8.9725e-11
5.47162e-09
1.02897e-10
5.45825e-09
1.18845e-10
5.44284e-09
1.37825e-10
5.42503e-09
1.60101e-10
5.40445e-09
1.85928e-10
5.38067e-09
2.15579e-10
5.35325e-09
2.49307e-10
5.32172e-09
2.8745e-10
5.28559e-09
3.30267e-10
5.2443e-09
3.78198e-10
5.19728e-09
4.31461e-10
5.14391e-09
4.9079e-10
5.08352e-09
5.56233e-10
5.01535e-09
6.29241e-10
4.93865e-09
7.09183e-10
4.85237e-09
7.99503e-10
4.75572e-09
8.97312e-10
4.64703e-09
1.01167e-09
4.52561e-09
1.13243e-09
4.38825e-09
1.28548e-09
4.23498e-09
1.43679e-09
4.05871e-09
1.66562e-09
3.86252e-09
1.85747e-09
3.62957e-09
2.26318e-09
3.37232e-09
2.47682e-09
3.04556e-09
3.38071e-09
2.69025e-09
3.35444e-09
2.20376e-09
5.89786e-09
4.59156e-09
1.72852e-09
7.89584e-09
8.85173e-09
7.5606e-09
6.09842e-09
7.12435e-09
3.711e-09
6.79454e-09
2.16837e-09
6.58953e-09
1.36452e-09
6.45747e-09
9.61092e-10
6.36198e-09
7.35313e-10
6.2878e-09
5.8524e-10
6.22788e-09
4.79076e-10
6.17838e-09
3.99126e-10
6.13671e-09
3.38209e-10
6.10118e-09
2.89966e-10
6.07048e-09
2.51578e-10
6.04373e-09
2.20096e-10
6.0202e-09
1.94165e-10
5.99937e-09
1.7238e-10
5.98081e-09
1.53997e-10
5.96417e-09
1.3829e-10
5.94919e-09
1.24801e-10
5.93563e-09
1.13141e-10
5.9233e-09
1.03037e-10
5.91205e-09
9.4256e-11
5.90172e-09
8.66679e-11
5.89218e-09
8.01559e-11
5.88333e-09
7.46591e-11
5.87504e-09
7.01578e-11
5.8672e-09
6.66714e-11
5.8597e-09
6.42625e-11
5.85239e-09
6.30076e-11
5.84516e-09
6.30249e-11
5.83784e-09
6.44835e-11
5.83027e-09
6.75664e-11
5.82225e-09
7.24655e-11
5.81359e-09
7.94045e-11
5.80403e-09
8.86378e-11
5.79333e-09
1.0043e-10
5.78118e-09
1.15039e-10
5.76729e-09
1.32737e-10
5.75131e-09
1.53808e-10
5.73286e-09
1.78545e-10
5.71156e-09
2.07231e-10
5.68697e-09
2.40166e-10
5.65865e-09
2.77632e-10
5.6261e-09
3.19999e-10
5.58881e-09
3.67554e-10
5.54623e-09
4.20784e-10
5.49776e-09
4.79926e-10
5.44276e-09
5.45788e-10
5.38057e-09
6.18424e-10
5.31039e-09
6.99429e-10
5.23146e-09
7.88111e-10
5.14271e-09
8.88255e-10
5.04333e-09
9.96691e-10
4.93162e-09
1.12338e-09
4.80685e-09
1.2572e-09
4.66578e-09
1.42655e-09
4.50845e-09
1.59413e-09
4.32814e-09
1.84593e-09
4.12763e-09
2.05798e-09
3.89076e-09
2.50005e-09
3.62923e-09
2.73835e-09
3.30119e-09
3.70876e-09
2.94242e-09
3.7132e-09
2.47313e-09
6.36715e-09
5.06199e-09
2.0027e-09
8.2435e-09
8.85523e-09
7.97867e-09
6.36325e-09
7.56272e-09
4.12695e-09
7.21066e-09
2.52042e-09
6.97929e-09
1.5959e-09
6.83012e-09
1.11026e-09
6.72464e-09
8.40793e-10
6.64368e-09
6.662e-10
6.57863e-09
5.44125e-10
6.52507e-09
4.52684e-10
6.4801e-09
3.83184e-10
6.4418e-09
3.28263e-10
6.40876e-09
2.84612e-10
6.38e-09
2.48856e-10
6.35474e-09
2.1943e-10
6.33239e-09
1.94732e-10
6.31248e-09
1.73903e-10
6.29465e-09
1.56116e-10
6.27861e-09
1.40849e-10
6.26409e-09
1.27657e-10
6.2509e-09
1.16225e-10
6.23887e-09
1.06293e-10
6.22782e-09
9.77097e-11
6.21764e-09
9.03387e-11
6.20819e-09
8.41097e-11
6.19935e-09
7.89992e-11
6.191e-09
7.5025e-11
6.18301e-09
7.22528e-11
6.17525e-09
7.07663e-11
6.16758e-09
7.06953e-11
6.15984e-09
7.22245e-11
6.15185e-09
7.55542e-11
6.14342e-09
8.08956e-11
6.13433e-09
8.84949e-11
6.12433e-09
9.86323e-11
6.11316e-09
1.11599e-10
6.10052e-09
1.27679e-10
6.08609e-09
1.47171e-10
6.06951e-09
1.70389e-10
6.0504e-09
1.97654e-10
6.02836e-09
2.29276e-10
6.00294e-09
2.65586e-10
5.97367e-09
3.06892e-10
5.94007e-09
3.53601e-10
5.9016e-09
4.06027e-10
5.85768e-09
4.64701e-10
5.80773e-09
5.29881e-10
5.75106e-09
6.02453e-10
5.68701e-09
6.82472e-10
5.61476e-09
7.71684e-10
5.53354e-09
8.6933e-10
5.44225e-09
9.79547e-10
5.34006e-09
1.09888e-09
5.22523e-09
1.23821e-09
5.09701e-09
1.38542e-09
4.95217e-09
1.57139e-09
4.79079e-09
1.7555e-09
4.60646e-09
2.03025e-09
4.40174e-09
2.2627e-09
4.16096e-09
2.74083e-09
3.89522e-09
3.0041e-09
3.5659e-09
4.03807e-09
3.2041e-09
4.07501e-09
2.74927e-09
6.82198e-09
5.529e-09
2.28227e-09
8.59572e-09
8.83472e-09
8.39741e-09
6.56156e-09
8.01241e-09
4.51195e-09
7.64673e-09
2.88611e-09
7.38897e-09
1.85366e-09
7.22003e-09
1.2792e-09
7.10249e-09
9.58331e-10
7.01376e-09
7.54928e-10
6.94301e-09
6.14879e-10
6.88497e-09
5.10724e-10
6.83635e-09
4.31798e-10
6.79503e-09
3.69583e-10
6.75944e-09
3.20199e-10
6.7285e-09
2.79798e-10
6.70135e-09
2.46586e-10
6.67735e-09
2.18734e-10
6.65599e-09
1.95261e-10
6.63687e-09
1.75232e-10
6.61967e-09
1.58046e-10
6.60413e-09
1.43203e-10
6.59001e-09
1.30343e-10
6.57713e-09
1.19172e-10
6.56532e-09
1.09518e-10
6.55444e-09
1.01222e-10
6.54435e-09
9.42033e-11
6.53491e-09
8.84347e-11
6.526e-09
8.39306e-11
6.5175e-09
8.07596e-11
6.50925e-09
7.90128e-11
6.50112e-09
7.88314e-11
6.49292e-09
8.0416e-11
6.48449e-09
8.39843e-11
6.47562e-09
8.9767e-11
6.46608e-09
9.80334e-11
6.45563e-09
1.0909e-10
6.44397e-09
1.23256e-10
6.43081e-09
1.40841e-10
6.4158e-09
1.62174e-10
6.3986e-09
1.87593e-10
6.3788e-09
2.17453e-10
6.35598e-09
2.52092e-10
6.3297e-09
2.91869e-10
6.29947e-09
3.37122e-10
6.26478e-09
3.88293e-10
6.22508e-09
4.45723e-10
6.17979e-09
5.0999e-10
6.1283e-09
5.81375e-10
6.06992e-09
6.60837e-10
6.00395e-09
7.48436e-10
5.92957e-09
8.46069e-10
5.84598e-09
9.52914e-10
5.75207e-09
1.07346e-09
5.64697e-09
1.20397e-09
5.5289e-09
1.35628e-09
5.3971e-09
1.51723e-09
5.24849e-09
1.72e-09
5.08314e-09
1.92086e-09
4.89474e-09
2.21865e-09
4.68578e-09
2.47166e-09
4.44108e-09
2.98554e-09
4.17114e-09
3.27403e-09
3.84053e-09
4.36869e-09
3.47608e-09
4.43946e-09
3.0334e-09
7.26466e-09
5.9938e-09
2.56859e-09
8.95523e-09
8.79599e-09
8.8176e-09
6.69919e-09
8.47254e-09
4.857e-09
8.10306e-09
3.25559e-09
7.82036e-09
2.13635e-09
7.62955e-09
1.47002e-09
7.49759e-09
1.09029e-09
7.39964e-09
8.52871e-10
7.32244e-09
6.92087e-10
7.25943e-09
5.73734e-10
7.2068e-09
4.84425e-10
7.16216e-09
4.14222e-10
7.12378e-09
3.5858e-10
7.09045e-09
3.13125e-10
7.06124e-09
2.758e-10
7.03544e-09
2.44531e-10
7.0125e-09
2.18198e-10
6.99199e-09
1.95745e-10
6.97355e-09
1.76488e-10
6.95688e-09
1.59866e-10
6.94176e-09
1.45467e-10
6.92797e-09
1.32961e-10
6.91534e-09
1.22153e-10
6.9037e-09
1.1286e-10
6.89291e-09
1.0499e-10
6.88284e-09
9.851e-11
6.87334e-09
9.34302e-11
6.86427e-09
8.98217e-11
6.8555e-09
8.77829e-11
6.84687e-09
8.74668e-11
6.8382e-09
8.90895e-11
6.82929e-09
9.28865e-11
6.81995e-09
9.91081e-11
6.80994e-09
1.08048e-10
6.79899e-09
1.20039e-10
6.78682e-09
1.35429e-10
6.7731e-09
1.54554e-10
6.75751e-09
1.77771e-10
6.73965e-09
2.0545e-10
6.71913e-09
2.37974e-10
6.69551e-09
2.7571e-10
6.66833e-09
3.1905e-10
6.63709e-09
3.68358e-10
6.60127e-09
4.24114e-10
6.56031e-09
4.86688e-10
6.5136e-09
5.56702e-10
6.46051e-09
6.34459e-10
6.40035e-09
7.20998e-10
6.33241e-09
8.16381e-10
6.25582e-09
9.22659e-10
6.16978e-09
1.03895e-09
6.07315e-09
1.1701e-09
5.96502e-09
1.3121e-09
5.84359e-09
1.47772e-09
5.70814e-09
1.65267e-09
5.55577e-09
1.87238e-09
5.38644e-09
2.09019e-09
5.19391e-09
2.41117e-09
4.98062e-09
2.68495e-09
4.73195e-09
3.23421e-09
4.45782e-09
3.54817e-09
4.12585e-09
4.70066e-09
3.7591e-09
4.80621e-09
3.3267e-09
7.69706e-09
6.45737e-09
2.86312e-09
9.32244e-09
8.7449e-09
9.23893e-09
6.78271e-09
8.94222e-09
5.15372e-09
8.5789e-09
3.61891e-09
8.27484e-09
2.44041e-09
8.06085e-09
1.684e-09
7.91216e-09
1.23898e-09
7.80318e-09
9.61857e-10
7.71841e-09
7.76857e-10
7.64979e-09
6.42348e-10
7.59273e-09
5.4149e-10
7.54443e-09
4.62519e-10
7.50298e-09
4.00031e-10
7.46704e-09
3.49063e-10
7.43558e-09
3.07265e-10
7.40782e-09
2.72288e-10
7.38316e-09
2.42854e-10
7.36113e-09
2.17779e-10
7.34133e-09
1.96284e-10
7.32346e-09
1.77741e-10
7.30725e-09
1.61681e-10
7.29247e-09
1.47735e-10
7.27894e-09
1.35685e-10
7.26648e-09
1.25316e-10
7.25495e-09
1.16526e-10
7.24418e-09
1.09276e-10
7.23404e-09
1.03571e-10
7.22438e-09
9.9482e-11
7.21505e-09
9.71163e-11
7.20588e-09
9.66386e-11
7.19669e-09
9.828e-11
7.18728e-09
1.02294e-10
7.17744e-09
1.0895e-10
7.16692e-09
1.18568e-10
7.15545e-09
1.31508e-10
7.14273e-09
1.48146e-10
7.12844e-09
1.68847e-10
7.11221e-09
1.93994e-10
7.09367e-09
2.2399e-10
7.0724e-09
2.59248e-10
7.04794e-09
3.00166e-10
7.01983e-09
3.47167e-10
6.98754e-09
4.00643e-10
6.95054e-09
4.61111e-10
6.90826e-09
5.28969e-10
6.86008e-09
6.04889e-10
6.80534e-09
6.89195e-10
6.74334e-09
7.83002e-10
6.67334e-09
8.8638e-10
6.59446e-09
1.00154e-09
6.50588e-09
1.12753e-09
6.4064e-09
1.26958e-09
6.29511e-09
1.42339e-09
6.17024e-09
1.60259e-09
6.03115e-09
1.79175e-09
5.87495e-09
2.02858e-09
5.70157e-09
2.26357e-09
5.50483e-09
2.60791e-09
5.28711e-09
2.90267e-09
5.03439e-09
3.48692e-09
4.75604e-09
3.82652e-09
4.42265e-09
5.03405e-09
4.05389e-09
5.17497e-09
3.63033e-09
8.12062e-09
6.92044e-09
3.16725e-09
9.69435e-09
8.6909e-09
9.65654e-09
6.82052e-09
9.41767e-09
5.39259e-09
9.07187e-09
3.9647e-09
8.75328e-09
2.75901e-09
8.51588e-09
1.92141e-09
8.3484e-09
1.40646e-09
8.22643e-09
1.08382e-09
8.13267e-09
8.70622e-10
8.05751e-09
7.17503e-10
7.99543e-09
6.03571e-10
7.94309e-09
5.14859e-10
7.89826e-09
4.44862e-10
7.85945e-09
3.8787e-10
7.82552e-09
3.41198e-10
7.79562e-09
3.02188e-10
7.76908e-09
2.69389e-10
7.74539e-09
2.41473e-10
7.72412e-09
2.17554e-10
7.70493e-09
1.96934e-10
7.68753e-09
1.79079e-10
7.67168e-09
1.63579e-10
7.65718e-09
1.50188e-10
7.64384e-09
1.38658e-10
7.63149e-09
1.28873e-10
7.61998e-09
1.2079e-10
7.60915e-09
1.14404e-10
7.59884e-09
1.09788e-10
7.5889e-09
1.07057e-10
7.57915e-09
1.06388e-10
7.5694e-09
1.08026e-10
7.55945e-09
1.12243e-10
7.54907e-09
1.19329e-10
7.53801e-09
1.29628e-10
7.52599e-09
1.43531e-10
7.5127e-09
1.61442e-10
7.49779e-09
1.83752e-10
7.48091e-09
2.10878e-10
7.46165e-09
2.43249e-10
7.43958e-09
2.81314e-10
7.41425e-09
3.255e-10
7.38515e-09
3.76261e-10
7.35178e-09
4.34019e-10
7.31356e-09
4.99331e-10
7.2699e-09
5.72622e-10
7.22018e-09
6.54612e-10
7.16373e-09
7.45647e-10
7.09981e-09
8.46923e-10
7.02767e-09
9.58516e-10
6.94641e-09
1.0828e-09
6.85517e-09
1.21876e-09
6.75272e-09
1.37203e-09
6.63815e-09
1.53796e-09
6.50982e-09
1.73092e-09
6.36706e-09
1.93451e-09
6.20694e-09
2.1887e-09
6.02938e-09
2.44114e-09
5.82833e-09
2.80896e-09
5.60606e-09
3.12494e-09
5.34923e-09
3.74375e-09
5.06659e-09
4.10916e-09
4.73171e-09
5.36894e-09
4.36115e-09
5.54552e-09
3.94536e-09
8.53641e-09
7.38353e-09
3.48228e-09
1.00745e-08
8.64045e-09
1.00722e-08
6.82275e-09
9.89534e-09
5.56947e-09
9.57938e-09
4.28065e-09
9.25577e-09
3.08262e-09
8.99629e-09
2.18089e-09
8.80836e-09
1.5944e-09
8.67148e-09
1.2207e-09
8.56717e-09
9.7493e-10
8.4843e-09
8.00377e-10
8.41635e-09
6.71519e-10
8.35941e-09
5.71797e-10
8.31084e-09
4.93436e-10
8.26887e-09
4.29837e-10
8.23222e-09
3.77845e-10
8.19997e-09
3.34438e-10
8.17138e-09
2.97981e-10
8.14587e-09
2.6698e-10
8.12299e-09
2.40434e-10
8.10236e-09
2.17566e-10
8.08367e-09
1.97768e-10
8.06666e-09
1.80589e-10
8.0511e-09
1.65749e-10
8.0368e-09
1.52961e-10
8.02357e-09
1.42101e-10
8.01125e-09
1.33116e-10
7.99966e-09
1.25988e-10
7.98866e-09
1.20793e-10
7.97806e-09
1.17655e-10
7.96769e-09
1.16761e-10
7.95734e-09
1.18371e-10
7.94681e-09
1.22774e-10
7.93585e-09
1.30283e-10
7.92422e-09
1.41266e-10
7.9116e-09
1.56145e-10
7.89769e-09
1.75352e-10
7.88214e-09
1.99308e-10
7.86456e-09
2.28458e-10
7.84454e-09
2.63266e-10
7.82164e-09
3.04211e-10
7.79539e-09
3.51753e-10
7.76527e-09
4.06378e-10
7.73075e-09
4.68538e-10
7.69126e-09
5.38829e-10
7.64617e-09
6.17705e-10
7.59485e-09
7.05934e-10
7.53661e-09
8.03886e-10
7.4707e-09
9.1284e-10
7.39633e-09
1.03288e-09
7.31258e-09
1.16655e-09
7.21856e-09
1.31279e-09
7.11301e-09
1.47757e-09
6.99513e-09
1.65585e-09
6.86328e-09
1.86277e-09
6.71675e-09
2.08104e-09
6.55261e-09
2.35284e-09
6.37074e-09
2.623e-09
6.16525e-09
3.01445e-09
5.93832e-09
3.35187e-09
5.67727e-09
4.0048e-09
5.3903e-09
4.39612e-09
5.05383e-09
5.7054e-09
4.68161e-09
5.91774e-09
4.27282e-09
8.9452e-09
7.84693e-09
3.80942e-09
1.04684e-08
8.59504e-09
1.04917e-08
6.79943e-09
1.03754e-08
5.68577e-09
1.00997e-08
4.55635e-09
9.78077e-09
3.40153e-09
9.50329e-09
2.45837e-09
9.29407e-09
1.80361e-09
9.14037e-09
1.37441e-09
9.02388e-09
1.09142e-09
8.93204e-09
8.92214e-10
8.85722e-09
7.46337e-10
8.7949e-09
6.34119e-10
8.74203e-09
5.46308e-10
8.69652e-09
4.75342e-10
8.65688e-09
4.17482e-10
8.62205e-09
3.69276e-10
8.5912e-09
3.28831e-10
8.5637e-09
2.94477e-10
8.53906e-09
2.65076e-10
8.51685e-09
2.3977e-10
8.49675e-09
2.17866e-10
8.47847e-09
1.98869e-10
8.46176e-09
1.82463e-10
8.44641e-09
1.68313e-10
8.43222e-09
1.56287e-10
8.41901e-09
1.46323e-10
8.40662e-09
1.38388e-10
8.39485e-09
1.32557e-10
8.38354e-09
1.28965e-10
8.37249e-09
1.2781e-10
8.3615e-09
1.29363e-10
8.35034e-09
1.33933e-10
8.33877e-09
1.41854e-10
8.32652e-09
1.53523e-10
8.31327e-09
1.6939e-10
8.29871e-09
1.89916e-10
8.28246e-09
2.15553e-10
8.26414e-09
2.46776e-10
8.24333e-09
2.84082e-10
8.21955e-09
3.27984e-10
8.19233e-09
3.78972e-10
8.16115e-09
4.37568e-10
8.12543e-09
5.04253e-10
8.0846e-09
5.79662e-10
8.03802e-09
6.6428e-10
7.98503e-09
7.58925e-10
7.92492e-09
8.63992e-10
7.85692e-09
9.80842e-10
7.78023e-09
1.10958e-09
7.69387e-09
1.25291e-09
7.59693e-09
1.40972e-09
7.48825e-09
1.58626e-09
7.367e-09
1.77709e-09
7.23154e-09
1.99822e-09
7.08112e-09
2.23146e-09