/*--------------------------------*- C++ -*----------------------------------*\
| =========                 |                                                 |
| \\      /  F ield         | OpenFOAM: The Open Source CFD Toolbox           |
|  \\    /   O peration     | Version:  v1906                                 |
|   \\  /    A nd           | Web:      www.OpenFOAM.com                      |
|    \\/     M anipulation  |                                                 |
\*---------------------------------------------------------------------------*/
FoamFile
{
    version     2.0;
    format      ascii;
    class       volVectorField;
    location    "0.2";
    object      U;
}
// * * * * * * * * * * * * * * * * * * * * * * * * * * * * * * * * * * * * * //

dimensions      [0 1 -1 0 0 0 0];


internalField   nonuniform List<vector> 
80000
(
(4.90303 0.00476562 0)
(3.6856 0.000649768 0)
(3.51621 9.4532e-05 0)
(3.4073 0.000102292 0)
(3.31168 8.8385e-05 0)
(3.24075 6.94026e-05 0)
(3.18459 5.66976e-05 0)
(3.14061 4.79978e-05 0)
(3.10394 4.15805e-05 0)
(3.07377 3.66143e-05 0)
(3.04792 3.27132e-05 0)
(3.02593 2.95571e-05 0)
(3.00673 2.69914e-05 0)
(2.99 2.4845e-05 0)
(2.97519 2.30407e-05 0)
(2.96207 2.14967e-05 0)
(2.95034 2.01733e-05 0)
(2.93981 1.90249e-05 0)
(2.93031 1.80275e-05 0)
(2.92169 1.71591e-05 0)
(2.91385 1.64073e-05 0)
(2.90668 1.57611e-05 0)
(2.90009 1.52239e-05 0)
(2.89399 1.48018e-05 0)
(2.88832 1.45085e-05 0)
(2.88299 1.43668e-05 0)
(2.87793 1.44158e-05 0)
(2.87305 1.47089e-05 0)
(2.86827 1.53052e-05 0)
(2.86347 1.62891e-05 0)
(2.85856 1.77744e-05 0)
(2.85339 1.98912e-05 0)
(2.84781 2.27909e-05 0)
(2.84166 2.66603e-05 0)
(2.83475 3.17225e-05 0)
(2.82686 3.82317e-05 0)
(2.81776 4.64742e-05 0)
(2.80717 5.67831e-05 0)
(2.79482 6.95388e-05 0)
(2.78038 8.51673e-05 0)
(2.76351 0.000104141 0)
(2.74385 0.000126993 0)
(2.72099 0.000154317 0)
(2.69451 0.000186816 0)
(2.66395 0.00022522 0)
(2.62883 0.000270439 0)
(2.58858 0.000323342 0)
(2.54273 0.000385234 0)
(2.49048 0.000457057 0)
(2.43147 0.000540873 0)
(2.36442 0.000637307 0)
(2.28945 0.000750467 0)
(2.20398 0.000879134 0)
(2.10983 0.00103341 0)
(2.0006 0.00120463 0)
(1.88386 0.00142267 0)
(1.74133 0.00164987 0)
(1.59956 0.0019919 0)
(1.40187 0.00238449 0)
(1.23015 0.00305412 0)
(0.909598 0.00335091 0)
(0.748164 0.0045444 0)
(0.153932 0.00253954 0)
(0.325666 0.00227412 0)
(-0.761432 -0.000894421 0)
(6.29403 0.00881753 0)
(5.02088 0.00199341 0)
(4.71311 0.000462486 0)
(4.5756 0.000327941 0)
(4.46703 0.000277132 0)
(4.38417 0.00022411 0)
(4.31785 0.00018486 0)
(4.26583 0.000156426 0)
(4.2226 0.000135485 0)
(4.18705 0.000119209 0)
(4.15664 0.000106509 0)
(4.13079 9.6192e-05 0)
(4.10824 8.7839e-05 0)
(4.08861 8.08369e-05 0)
(4.07124 7.49687e-05 0)
(4.05586 6.99398e-05 0)
(4.04211 6.56358e-05 0)
(4.02978 6.18984e-05 0)
(4.01865 5.86543e-05 0)
(4.00857 5.58274e-05 0)
(3.99939 5.33795e-05 0)
(3.991 5.12735e-05 0)
(3.9833 4.95172e-05 0)
(3.97618 4.81289e-05 0)
(3.96955 4.71524e-05 0)
(3.96333 4.66579e-05 0)
(3.95744 4.67655e-05 0)
(3.95176 4.76435e-05 0)
(3.94621 4.94819e-05 0)
(3.94066 5.25419e-05 0)
(3.93499 5.71793e-05 0)
(3.92904 6.38074e-05 0)
(3.92266 7.29056e-05 0)
(3.91564 8.50611e-05 0)
(3.90778 0.000100978 0)
(3.89884 0.000121465 0)
(3.88854 0.000147432 0)
(3.87659 0.000179937 0)
(3.86267 0.000220191 0)
(3.84642 0.000269567 0)
(3.82745 0.00032959 0)
(3.80536 0.000402003 0)
(3.77969 0.000488734 0)
(3.74997 0.000592114 0)
(3.71566 0.000714575 0)
(3.67625 0.000859237 0)
(3.63105 0.00102906 0)
(3.57954 0.00122865 0)
(3.52081 0.00146132 0)
(3.4544 0.00173474 0)
(3.37889 0.00205119 0)
(3.29426 0.0024263 0)
(3.19769 0.00285598 0)
(3.09086 0.003379 0)
(2.96692 0.00396453 0)
(2.83327 0.00472691 0)
(2.67076 0.00553007 0)
(2.50573 0.00676492 0)
(2.27971 0.00798865 0)
(2.0829 0.0105533 0)
(1.7287 0.0119175 0)
(1.52668 0.0176933 0)
(0.831709 0.0135893 0)
(0.872292 0.0264475 0)
(-0.808911 0.0174204 0)
(6.85621 0.0127453 0)
(5.65146 0.00354684 0)
(5.26854 0.000969965 0)
(5.10769 0.00060918 0)
(4.99182 0.000499734 0)
(4.90378 0.000406762 0)
(4.83308 0.000336646 0)
(4.77754 0.000284787 0)
(4.73145 0.000246528 0)
(4.69355 0.000216775 0)
(4.66117 0.000193604 0)
(4.63364 0.000174775 0)
(4.60965 0.000159548 0)
(4.58877 0.000146786 0)
(4.57031 0.0001361 0)
(4.55396 0.000126943 0)
(4.53935 0.000119111 0)
(4.52625 0.00011231 0)
(4.51443 0.000106408 0)
(4.50373 0.000101264 0)
(4.49398 9.68087e-05 0)
(4.48508 9.29729e-05 0)
(4.4769 8.97682e-05 0)
(4.46934 8.72246e-05 0)
(4.46232 8.54197e-05 0)
(4.45573 8.44768e-05 0)
(4.44949 8.46056e-05 0)
(4.44348 8.61042e-05 0)
(4.43762 8.9311e-05 0)
(4.43176 9.46866e-05 0)
(4.42579 0.000102859 0)
(4.41955 0.000114561 0)
(4.41285 0.000130645 0)
(4.40551 0.000152148 0)
(4.39731 0.000180316 0)
(4.38799 0.000216585 0)
(4.37728 0.000262567 0)
(4.36487 0.000320136 0)
(4.35043 0.000391436 0)
(4.33358 0.000478903 0)
(4.31394 0.000585245 0)
(4.29108 0.000713557 0)
(4.26453 0.000867261 0)
(4.2338 0.0010505 0)
(4.19835 0.0012676 0)
(4.15763 0.00152413 0)
(4.11097 0.00182539 0)
(4.05779 0.00217962 0)
(3.9972 0.00259281 0)
(3.92869 0.0030787 0)
(3.85084 0.00364162 0)
(3.76359 0.00430954 0)
(3.66415 0.0050759 0)
(3.55404 0.0060097 0)
(3.42665 0.00705847 0)
(3.28884 0.00842402 0)
(3.12238 0.00987322 0)
(2.95186 0.0120878 0)
(2.72213 0.0142079 0)
(2.51852 0.0185782 0)
(2.16397 0.0210486 0)
(1.95012 0.0317209 0)
(1.2629 0.0269448 0)
(1.22554 0.0575214 0)
(-0.536691 0.0324147 0)
(7.23799 0.0157456 0)
(6.09332 0.00513777 0)
(5.64961 0.00158987 0)
(5.46272 0.000935204 0)
(5.33846 0.000744346 0)
(5.24583 0.000606121 0)
(5.17156 0.000502568 0)
(5.11313 0.000425083 0)
(5.06472 0.000367821 0)
(5.0249 0.000323255 0)
(4.99094 0.000288598 0)
(4.96207 0.000260431 0)
(4.93693 0.000237675 0)
(4.91505 0.000218602 0)
(4.89572 0.000202645 0)
(4.87861 0.000188975 0)
(4.86332 0.000177285 0)
(4.84962 0.000167137 0)
(4.83725 0.000158332 0)
(4.82606 0.000150657 0)
(4.81587 0.000144008 0)
(4.80656 0.000138281 0)
(4.79802 0.00013349 0)
(4.79013 0.000129677 0)
(4.78279 0.000126954 0)
(4.77592 0.0001255 0)
(4.7694 0.00012562 0)
(4.76315 0.000127749 0)
(4.75705 0.000132382 0)
(4.75097 0.000140192 0)
(4.74478 0.000152094 0)
(4.73833 0.000169162 0)
(4.73142 0.00019264 0)
(4.72387 0.000224045 0)
(4.71545 0.000265196 0)
(4.70591 0.000318193 0)
(4.69495 0.000385395 0)
(4.68228 0.000469533 0)
(4.66755 0.000573741 0)
(4.65039 0.000701577 0)
(4.6304 0.000856997 0)
(4.60715 0.00104452 0)
(4.58016 0.00126914 0)
(4.54894 0.00153691 0)
(4.51294 0.00185413 0)
(4.47161 0.00222896 0)
(4.42427 0.0026691 0)
(4.37034 0.00318662 0)
(4.30892 0.00379025 0)
(4.23949 0.00450009 0)
(4.16065 0.00532249 0)
(4.07228 0.00629828 0)
(3.97169 0.00741812 0)
(3.86026 0.00878233 0)
(3.73162 0.0103156 0)
(3.59221 0.0123096 0)
(3.42464 0.0144306 0)
(3.25201 0.0176544 0)
(3.02225 0.0206939 0)
(2.81477 0.0269654 0)
(2.46394 0.0306016 0)
(2.24121 0.0461393 0)
(1.57509 0.0412798 0)
(1.48351 0.0889847 0)
(-0.236031 0.0540908 0)
(7.50877 0.0180892 0)
(6.45039 0.00679579 0)
(5.95131 0.00233062 0)
(5.73593 0.00131661 0)
(5.60158 0.00101589 0)
(5.50414 0.000823982 0)
(5.42647 0.00068362 0)
(5.36534 0.000578119 0)
(5.31479 0.000500031 0)
(5.27322 0.000439225 0)
(5.23781 0.000391986 0)
(5.20772 0.0003536 0)
(5.18154 0.000322608 0)
(5.15877 0.00029664 0)
(5.13866 0.000274928 0)
(5.12086 0.000256331 0)
(5.10497 0.000240434 0)
(5.09072 0.000226637 0)
(5.07788 0.000214667 0)
(5.06625 0.000204233 0)
(5.05567 0.000195192 0)
(5.04601 0.000187401 0)
(5.03714 0.000180876 0)
(5.02895 0.000175667 0)
(5.02135 0.000171924 0)
(5.01423 0.000169885 0)
(5.00748 0.000169952 0)
(5.00102 0.000172701 0)
(4.99472 0.000178796 0)
(4.98845 0.00018913 0)
(4.98209 0.000204919 0)
(4.97546 0.000227595 0)
(4.9684 0.000258815 0)
(4.96069 0.000300597 0)
(4.95212 0.000355363 0)
(4.94242 0.000425908 0)
(4.93131 0.000515375 0)
(4.91848 0.000627398 0)
(4.90359 0.000766144 0)
(4.88626 0.000936348 0)
(4.8661 0.00114327 0)
(4.84265 0.00139293 0)
(4.81547 0.00169197 0)
(4.78404 0.0020484 0)
(4.74781 0.00247064 0)
(4.70624 0.00296951 0)
(4.65865 0.00355526 0)
(4.60445 0.00424392 0)
(4.54276 0.0050471 0)
(4.47304 0.00599149 0)
(4.39393 0.00708562 0)
(4.30527 0.00838354 0)
(4.20444 0.00987331 0)
(4.09272 0.0116872 0)
(3.96399 0.0137271 0)
(3.8243 0.0163758 0)
(3.65706 0.0191995 0)
(3.48407 0.023467 0)
(3.25598 0.0274829 0)
(3.04729 0.0357006 0)
(2.70208 0.0405948 0)
(2.47433 0.0610038 0)
(1.83267 0.056628 0)
(1.70368 0.121701 0)
(0.0932211 0.0780984 0)
(7.70391 0.0199781 0)
(6.75777 0.00847427 0)
(6.20904 0.00319232 0)
(5.96289 0.00176115 0)
(5.81664 0.00131811 0)
(5.71383 0.00106141 0)
(5.6327 0.000880073 0)
(5.56894 0.000743975 0)
(5.5163 0.000643172 0)
(5.47305 0.000564664 0)
(5.43625 0.000503717 0)
(5.405 0.000454215 0)
(5.37785 0.000414271 0)
(5.35422 0.000380815 0)
(5.33338 0.000352858 0)
(5.31495 0.000328921 0)
(5.29849 0.000308464 0)
(5.28374 0.000290715 0)
(5.27045 0.000275319 0)
(5.25842 0.000261899 0)
(5.24748 0.000250267 0)
(5.23749 0.000240239 0)
(5.22833 0.00023183 0)
(5.21987 0.000225099 0)
(5.21202 0.000220231 0)
(5.20466 0.000217527 0)
(5.19771 0.000217489 0)
(5.19106 0.000220839 0)
(5.18457 0.000228414 0)
(5.17815 0.00024134 0)
(5.17163 0.000261143 0)
(5.16486 0.000289627 0)
(5.15767 0.00032888 0)
(5.14984 0.00038144 0)
(5.14115 0.000450357 0)
(5.13134 0.00053915 0)
(5.12013 0.000651775 0)
(5.10721 0.000792806 0)
(5.09224 0.000967481 0)
(5.07483 0.00118176 0)
(5.0546 0.00144225 0)
(5.03109 0.00175654 0)
(5.00385 0.00213295 0)
(4.97238 0.00258157 0)
(4.93613 0.00311297 0)
(4.89454 0.00374073 0)
(4.84696 0.00447772 0)
(4.79279 0.00534407 0)
(4.73116 0.00635435 0)
(4.66155 0.00754203 0)
(4.58259 0.0089179 0)
(4.49413 0.0105495 0)
(4.39361 0.0124224 0)
(4.28224 0.0147012 0)
(4.15409 0.0172652 0)
(4.01494 0.0205886 0)
(3.84887 0.0241383 0)
(3.67661 0.0294744 0)
(3.45112 0.0345004 0)
(3.24294 0.044693 0)
(2.90409 0.0509111 0)
(2.67445 0.0760758 0)
(2.05912 0.0726393 0)
(1.90453 0.153746 0)
(0.427742 0.104403 0)
(7.84593 0.0214193 0)
(7.02825 0.0101293 0)
(6.44159 0.00418111 0)
(6.1614 0.00228079 0)
(6.00148 0.00165659 0)
(5.89256 0.00132101 0)
(5.80775 0.0010933 0)
(5.7413 0.000923588 0)
(5.68658 0.000797967 0)
(5.64164 0.000700162 0)
(5.60348 0.000624285 0)
(5.57109 0.000562699 0)
(5.54297 0.00051303 0)
(5.51853 0.000471451 0)
(5.49698 0.000436723 0)
(5.47792 0.000407003 0)
(5.46092 0.000381611 0)
(5.44569 0.000359589 0)
(5.43197 0.000340487 0)
(5.41956 0.000323839 0)
(5.40827 0.000309405 0)
(5.39797 0.000296956 0)
(5.38852 0.000286504 0)
(5.3798 0.000278116 0)
(5.37171 0.000272011 0)
(5.36415 0.000268554 0)
(5.357 0.00026835 0)
(5.35016 0.000272272 0)
(5.34352 0.000281338 0)
(5.33694 0.000296911 0)
(5.33028 0.000320843 0)
(5.32339 0.00035532 0)
(5.31608 0.000402877 0)
(5.30815 0.000466593 0)
(5.29937 0.000550167 0)
(5.28948 0.000657869 0)
(5.27821 0.000794499 0)
(5.26523 0.000965603 0)
(5.25022 0.00117753 0)
(5.23279 0.0014375 0)
(5.21255 0.00175353 0)
(5.18906 0.0021348 0)
(5.16185 0.0025914 0)
(5.13045 0.00313554 0)
(5.09428 0.00378 0)
(5.05283 0.00454122 0)
(5.0054 0.00543477 0)
(4.95145 0.00648496 0)
(4.89009 0.00770944 0)
(4.8208 0.00914858 0)
(4.74226 0.0108155 0)
(4.65429 0.0127916 0)
(4.55442 0.0150597 0)
(4.44376 0.0178174 0)
(4.31661 0.0209213 0)
(4.17849 0.0249374 0)
(4.01405 0.0292336 0)
(3.84317 0.0356602 0)
(3.62074 0.0417252 0)
(3.4141 0.0539203 0)
(3.08188 0.0615038 0)
(2.85247 0.091269 0)
(2.26399 0.0891245 0)
(2.09191 0.184598 0)
(0.750405 0.131529 0)
(7.95862 0.022519 0)
(7.26737 0.0117406 0)
(6.65821 0.00529544 0)
(6.34134 0.00288512 0)
(6.16625 0.00203662 0)
(6.05032 0.00160572 0)
(5.9615 0.00132485 0)
(5.89222 0.00111796 0)
(5.83536 0.000965168 0)
(5.78871 0.000846323 0)
(5.74917 0.000754188 0)
(5.71563 0.000679474 0)
(5.68656 0.00061925 0)
(5.66129 0.000568867 0)
(5.63903 0.000526808 0)
(5.61936 0.000490833 0)
(5.60182 0.000460108 0)
(5.58612 0.000433469 0)
(5.57197 0.000410367 0)
(5.55918 0.000390235 0)
(5.54755 0.000372776 0)
(5.53695 0.00035771 0)
(5.52722 0.000345047 0)
(5.51825 0.000334857 0)
(5.50994 0.000327394 0)
(5.50216 0.000323089 0)
(5.49482 0.000322652 0)
(5.48781 0.000327109 0)
(5.481 0.000337665 0)
(5.47428 0.000355932 0)
(5.46749 0.000384095 0)
(5.46048 0.000424735 0)
(5.45307 0.00048085 0)
(5.44505 0.000556078 0)
(5.43619 0.000654787 0)
(5.42624 0.000782027 0)
(5.41492 0.000943469 0)
(5.40192 0.00114566 0)
(5.3869 0.0013961 0)
(5.36948 0.0017033 0)
(5.34927 0.00207675 0)
(5.32584 0.00252725 0)
(5.29873 0.00306673 0)
(5.26745 0.00370956 0)
(5.23145 0.00447081 0)
(5.1902 0.00536985 0)
(5.14304 0.00642502 0)
(5.08941 0.00766491 0)
(5.02844 0.0091103 0)
(4.95962 0.0108086 0)
(4.88166 0.0127755 0)
(4.79436 0.0151061 0)
(4.69532 0.0177809 0)
(4.58562 0.0210307 0)
(4.4597 0.0246892 0)
(4.32288 0.0294151 0)
(4.16034 0.0344771 0)
(3.99122 0.0420153 0)
(3.77203 0.0491474 0)
(3.56753 0.0633617 0)
(3.24254 0.0723603 0)
(3.0143 0.106552 0)
(2.45203 0.105972 0)
(2.2681 0.214103 0)
(1.05314 0.158655 0)
(8.03913 0.0232573 0)
(7.47325 0.0132866 0)
(6.86183 0.00652004 0)
(6.50987 0.00358401 0)
(6.31729 0.00246582 0)
(6.19333 0.0019191 0)
(6.10005 0.00157669 0)
(6.02776 0.00132837 0)
(5.96864 0.00114573 0)
(5.92023 0.00100392 0)
(5.87927 0.000894063 0)
(5.84456 0.000805083 0)
(5.8145 0.000733402 0)
(5.7884 0.000673478 0)
(5.76543 0.000623481 0)
(5.74513 0.000580745 0)
(5.72705 0.000544256 0)
(5.71087 0.000512635 0)
(5.6963 0.000485217 0)
(5.68313 0.000461326 0)
(5.67116 0.000440602 0)
(5.66025 0.000422711 0)
(5.65025 0.000407658 0)
(5.64103 0.00039551 0)
(5.63249 0.000386557 0)
(5.6245 0.0003813 0)
(5.61698 0.000380555 0)
(5.60979 0.000385503 0)
(5.60283 0.000397542 0)
(5.59596 0.000418541 0)
(5.58905 0.000451029 0)
(5.58193 0.000497994 0)
(5.57441 0.000562911 0)
(5.56631 0.000649994 0)
(5.55738 0.000764306 0)
(5.54738 0.000911696 0)
(5.53603 0.00109874 0)
(5.52301 0.00133301 0)
(5.508 0.00162319 0)
(5.49061 0.00197914 0)
(5.47046 0.00241183 0)
(5.44713 0.00293378 0)
(5.42014 0.00355876 0)
(5.38902 0.00430339 0)
(5.35323 0.00518508 0)
(5.31225 0.0062262 0)
(5.26541 0.00744793 0)
(5.21217 0.00888325 0)
(5.15167 0.0105561 0)
(5.08341 0.0125212 0)
(5.00611 0.0147965 0)
(4.9196 0.0174916 0)
(4.82151 0.0205842 0)
(4.71288 0.0243389 0)
(4.58832 0.0285664 0)
(4.45298 0.0340186 0)
(4.29247 0.0398652 0)
(4.12531 0.0485379 0)
(3.90937 0.0567593 0)
(3.70737 0.0730011 0)
(3.39037 0.0834746 0)
(3.16352 0.121883 0)
(2.62628 0.123102 0)
(2.43485 0.242272 0)
(1.33347 0.185476 0)
(8.07163 0.0237091 0)
(7.63952 0.0147115 0)
(7.05284 0.00782379 0)
(6.67221 0.00438494 0)
(6.45879 0.00295228 0)
(6.32575 0.0022651 0)
(6.22746 0.00185125 0)
(6.1519 0.00155639 0)
(6.0904 0.00134081 0)
(6.04013 0.00117385 0)
(5.99768 0.00104467 0)
(5.96175 0.000940172 0)
(5.93068 0.000856046 0)
(5.90372 0.000785777 0)
(5.88002 0.000727184 0)
(5.85909 0.000677136 0)
(5.84045 0.000634418 0)
(5.82378 0.000597419 0)
(5.80878 0.000565343 0)
(5.79523 0.000537398 0)
(5.78292 0.000513152 0)
(5.7717 0.00049221 0)
(5.76141 0.000474573 0)
(5.75194 0.000460301 0)
(5.74317 0.000449717 0)
(5.73498 0.000443394 0)
(5.72726 0.000442255 0)
(5.7199 0.000447642 0)
(5.71278 0.000461149 0)
(5.70578 0.000484912 0)
(5.69874 0.000521813 0)
(5.6915 0.00057526 0)
(5.68389 0.000649217 0)
(5.6757 0.000748494 0)
(5.66672 0.000878869 0)
(5.65667 0.00104702 0)
(5.64529 0.00126044 0)
(5.63227 0.00152778 0)
(5.61727 0.00185893 0)
(5.59993 0.00226514 0)
(5.57985 0.0027589 0)
(5.55662 0.00335449 0)
(5.52978 0.00406758 0)
(5.49885 0.00491711 0)
(5.4633 0.00592287 0)
(5.42261 0.00711032 0)
(5.37613 0.00850353 0)
(5.32331 0.01014 0)
(5.26333 0.0120469 0)
(5.19568 0.0142862 0)
(5.1191 0.0168785 0)
(5.03344 0.0199477 0)
(4.93636 0.0234693 0)
(4.82889 0.0277415 0)
(4.70576 0.0325525 0)
(4.57198 0.0387477 0)
(4.41354 0.0453978 0)
(4.24842 0.0552282 0)
(4.03581 0.0645626 0)
(3.83637 0.0828094 0)
(3.52779 0.0948132 0)
(3.30304 0.137277 0)
(2.78911 0.140472 0)
(2.59382 0.269216 0)
(1.59201 0.211928 0)
(8.07458 0.0239951 0)
(7.76824 0.0159615 0)
(7.23094 0.00916208 0)
(6.83072 0.00528678 0)
(6.59431 0.00350643 0)
(6.45051 0.00264946 0)
(6.3466 0.00215138 0)
(6.26745 0.00180386 0)
(6.20338 0.00155176 0)
(6.15113 0.00135721 0)
(6.10712 0.00120689 0)
(6.06992 0.00108549 0)
(6.03779 0.000987831 0)
(6.00994 0.000906334 0)
(5.98547 0.000838426 0)
(5.96388 0.000780464 0)
(5.94468 0.000731013 0)
(5.9275 0.000688204 0)
(5.91206 0.0006511 0)
(5.89811 0.000618782 0)
(5.88545 0.000590736 0)
(5.87391 0.0005665 0)
(5.86334 0.000546069 0)
(5.85361 0.00052949 0)
(5.8446 0.000517121 0)
(5.8362 0.000509608 0)
(5.82829 0.000507982 0)
(5.82075 0.000513746 0)
(5.81348 0.000528699 0)
(5.80633 0.000555253 0)
(5.79916 0.000596649 0)
(5.79181 0.000656729 0)
(5.78411 0.000739962 0)
(5.77584 0.00085177 0)
(5.76679 0.000998668 0)
(5.7567 0.00118818 0)
(5.74529 0.00142877 0)
(5.73227 0.00173017 0)
(5.71729 0.00210352 0)
(5.7 0.0025615 0)
(5.68 0.00311817 0)
(5.65689 0.00378961 0)
(5.6302 0.00459346 0)
(5.59948 0.00555099 0)
(5.56418 0.00668449 0)
(5.5238 0.00802253 0)
(5.47769 0.00959218 0)
(5.42533 0.0114354 0)
(5.36589 0.0135829 0)
(5.29887 0.0161041 0)
(5.22305 0.019022 0)
(5.13826 0.0224752 0)
(5.04223 0.0264368 0)
(4.93595 0.0312394 0)
(4.81427 0.0366483 0)
(4.68207 0.0436041 0)
(4.52567 0.051079 0)
(4.36261 0.0620835 0)
(4.15363 0.0725587 0)
(3.95688 0.0927855 0)
(3.65658 0.106363 0)
(3.43507 0.152755 0)
(2.94249 0.158047 0)
(2.74617 0.295044 0)
(1.83018 0.23802 0)
(8.06438 0.0241355 0)
(7.86805 0.0170222 0)
(7.39549 0.0104926 0)
(6.98594 0.00628316 0)
(6.72695 0.0041394 0)
(6.56981 0.00307846 0)
(6.45957 0.00248029 0)
(6.37645 0.00207298 0)
(6.3096 0.00178017 0)
(6.25524 0.00155522 0)
(6.20956 0.00138173 0)
(6.17101 0.00124189 0)
(6.13776 0.0011295 0)
(6.10897 0.0010358 0)
(6.08371 0.000957785 0)
(6.06144 0.000891253 0)
(6.04163 0.000834515 0)
(6.02394 0.000785429 0)
(6.00803 0.000742894 0)
(5.99368 0.000705854 0)
(5.98065 0.000673704 0)
(5.96878 0.000645911 0)
(5.95792 0.000622459 0)
(5.94792 0.000603376 0)
(5.93867 0.000589053 0)
(5.93005 0.000580213 0)
(5.92194 0.000577996 0)
(5.91423 0.000584067 0)
(5.90679 0.000600436 0)
(5.89949 0.000629799 0)
(5.89219 0.00067577 0)
(5.88473 0.000742633 0)
(5.87692 0.000835375 0)
(5.86858 0.000960051 0)
(5.85946 0.00112394 0)
(5.84932 0.00133543 0)
(5.83789 0.00160398 0)
(5.82487 0.00194044 0)
(5.80991 0.00235725 0)
(5.79268 0.00286853 0)
(5.77277 0.00348998 0)
(5.74977 0.00423951 0)
(5.72325 0.00513678 0)
(5.69273 0.00620549 0)
(5.65769 0.00747044 0)
(5.61762 0.00896341 0)
(5.57191 0.0107145 0)
(5.52 0.0127704 0)
(5.46111 0.0151652 0)
(5.39474 0.0179757 0)
(5.31969 0.021228 0)
(5.23578 0.0250753 0)
(5.1408 0.0294882 0)
(5.03572 0.0348345 0)
(4.91548 0.0408565 0)
(4.78485 0.0485923 0)
(4.63042 0.0569091 0)
(4.46947 0.0690971 0)
(4.26439 0.0807395 0)
(4.0707 0.102938 0)
(3.77818 0.118109 0)
(3.56071 0.16829 0)
(3.08792 0.175802 0)
(2.89262 0.319897 0)
(2.04985 0.263809 0)
(8.05021 0.0241852 0)
(7.94492 0.01788 0)
(7.54426 0.01178 0)
(7.13749 0.0073601 0)
(6.85856 0.00485773 0)
(6.68592 0.00356136 0)
(6.568 0.00284242 0)
(6.48048 0.00236624 0)
(6.41058 0.00202787 0)
(6.35393 0.00176931 0)
(6.30648 0.00157036 0)
(6.26648 0.00141036 0)
(6.23206 0.00128189 0)
(6.20228 0.00117492 0)
(6.17618 0.00108592 0)
(6.15319 0.0010101 0)
(6.13276 0.000945465 0)
(6.11451 0.000889588 0)
(6.09813 0.000841179 0)
(6.08334 0.000799039 0)
(6.06994 0.000762455 0)
(6.05773 0.000730816 0)
(6.04656 0.000704095 0)
(6.03628 0.000682292 0)
(6.02678 0.000665831 0)
(6.01793 0.000655515 0)
(6.00962 0.000652591 0)
(6.00172 0.000658888 0)
(5.99411 0.000676635 0)
(5.98666 0.000708821 0)
(5.97923 0.000759441 0)
(5.97165 0.000833233 0)
(5.96374 0.000935718 0)
(5.9553 0.0010736 0)
(5.94612 0.00125494 0)
(5.93594 0.00148905 0)
(5.92448 0.00178636 0)
(5.91145 0.00215891 0)
(5.89652 0.00262045 0)
(5.87933 0.0031866 0)
(5.85951 0.00387473 0)
(5.83663 0.00470465 0)
(5.81027 0.00569807 0)
(5.77996 0.00688118 0)
(5.74518 0.00828136 0)
(5.70543 0.0099337 0)
(5.6601 0.0118714 0)
(5.60866 0.0141459 0)
(5.55032 0.0167947 0)
(5.48459 0.0199025 0)
(5.4103 0.0234981 0)
(5.32727 0.0277496 0)
(5.23334 0.0326257 0)
(5.12943 0.0385295 0)
(5.01059 0.0451813 0)
(4.88147 0.0537144 0)
(4.7291 0.0628912 0)
(4.57037 0.0762702 0)
(4.36921 0.0890945 0)
(4.17886 0.113258 0)
(3.89372 0.130046 0)
(3.68073 0.183882 0)
(3.22647 0.193719 0)
(3.03377 0.343928 0)
(2.2533 0.289374 0)
(8.03639 0.0241547 0)
(8.00212 0.0185348 0)
(7.6742 0.0129856 0)
(7.2846 0.00849419 0)
(6.99 0.00566412 0)
(6.80099 0.00410869 0)
(6.67347 0.00324379 0)
(6.58078 0.00268682 0)
(6.50752 0.00229697 0)
(6.4484 0.00200112 0)
(6.39903 0.0017741 0)
(6.35749 0.00159202 0)
(6.3218 0.00144597 0)
(6.29097 0.00132452 0)
(6.26398 0.00122358 0)
(6.24023 0.00113766 0)
(6.21914 0.00106447 0)
(6.20032 0.00100123 0)
(6.18343 0.000946469 0)
(6.1682 0.000898813 0)
(6.15439 0.000857432 0)
(6.14182 0.000821632 0)
(6.13033 0.000791372 0)
(6.11977 0.000766613 0)
(6.11001 0.000747811 0)
(6.10092 0.000735855 0)
(6.09239 0.000732095 0)
(6.08429 0.000738526 0)
(6.07651 0.000757603 0)
(6.0689 0.000792619 0)
(6.06133 0.000847959 0)
(6.05362 0.000928824 0)
(6.04561 0.00104129 0)
(6.03708 0.00119272 0)
(6.02783 0.001392 0)
(6.01759 0.00164935 0)
(6.0061 0.00197625 0)
(5.99307 0.00238594 0)
(5.97815 0.0028935 0)
(5.96102 0.00351613 0)
(5.94127 0.00427289 0)
(5.91852 0.00518554 0)
(5.89231 0.00627792 0)
(5.8622 0.00757874 0)
(5.82768 0.00911805 0)
(5.78825 0.0109343 0)
(5.7433 0.0130638 0)
(5.69232 0.015563 0)
(5.63452 0.0184728 0)
(5.56943 0.021886 0)
(5.49589 0.025834 0)
(5.41373 0.0305006 0)
(5.32081 0.035852 0)
(5.21804 0.0423285 0)
(5.10054 0.0496263 0)
(4.97292 0.0589706 0)
(4.82277 0.0690264 0)
(4.66636 0.0836033 0)
(4.46897 0.0976222 0)
(4.2821 0.123746 0)
(4.00406 0.142173 0)
(3.79574 0.199535 0)
(3.35895 0.211777 0)
(3.17009 0.367273 0)
(2.44287 0.31479 0)
(8.02491 0.0240715 0)
(8.0436 0.0190107 0)
(7.78539 0.0140819 0)
(7.42615 0.00965673 0)
(7.12145 0.00655637 0)
(6.91634 0.00472836 0)
(6.77763 0.00369303 0)
(6.67853 0.00303912 0)
(6.60142 0.00258998 0)
(6.53959 0.00225252 0)
(6.48814 0.00199449 0)
(6.44494 0.00178812 0)
(6.4079 0.00162282 0)
(6.37595 0.00148556 0)
(6.34801 0.0013716 0)
(6.32344 0.0012747 0)
(6.30165 0.00119221 0)
(6.28223 0.001121 0)
(6.2648 0.00105934 0)
(6.24909 0.00100571 0)
(6.23486 0.000959133 0)
(6.22192 0.000918828 0)
(6.21009 0.000884733 0)
(6.19923 0.000856758 0)
(6.18919 0.000835392 0)
(6.17985 0.000821614 0)
(6.1711 0.000816874 0)
(6.1628 0.000823333 0)
(6.15483 0.000843683 0)
(6.14705 0.000881529 0)
(6.13933 0.000941653 0)
(6.13149 0.00102973 0)
(6.12336 0.00115241 0)
(6.11474 0.00131774 0)
(6.10541 0.00153544 0)
(6.09512 0.00181669 0)
(6.0836 0.00217403 0)
(6.07055 0.00262192 0)
(6.05565 0.00317686 0)
(6.03856 0.00385761 0)
(6.01889 0.00468501 0)
(5.99624 0.0056828 0)
(5.97019 0.00687701 0)
(5.94028 0.00829896 0)
(5.90601 0.00998139 0)
(5.86689 0.0119662 0)
(5.82231 0.014293 0)
(5.77177 0.0170231 0)
(5.7145 0.0202012 0)
(5.65004 0.0239281 0)
(5.57723 0.0282382 0)
(5.49591 0.0333308 0)
(5.40397 0.0391707 0)
(5.30229 0.0462357 0)
(5.18609 0.0541943 0)
(5.06004 0.0643624 0)
(4.91216 0.0753098 0)
(4.75814 0.0910968 0)
(4.56439 0.106326 0)
(4.381 0.134403 0)
(4.10983 0.154489 0)
(3.90627 0.215251 0)
(3.486 0.229957 0)
(3.30194 0.390041 0)
(2.62071 0.340117 0)
(8.01698 0.0239426 0)
(8.06939 0.0193219 0)
(7.87952 0.0150511 0)
(7.55973 0.0108176 0)
(7.25258 0.00752662 0)
(7.03274 0.00542649 0)
(6.88183 0.00419887 0)
(6.77501 0.00342958 0)
(6.69322 0.00291048 0)
(6.62829 0.00252568 0)
(6.57457 0.00223323 0)
(6.52959 0.00200013 0)
(6.49108 0.00181368 0)
(6.45792 0.0016591 0)
(6.42897 0.00153092 0)
(6.40354 0.00142206 0)
(6.381 0.00132945 0)
(6.36093 0.00124957 0)
(6.34293 0.00118043 0)
(6.32672 0.00112033 0)
(6.31205 0.00106812 0)
(6.29871 0.00102293 0)
(6.28652 0.000984671 0)
(6.27533 0.000953192 0)
(6.26501 0.000929018 0)
(6.25541 0.000913219 0)
(6.24641 0.000907338 0)
(6.2379 0.000913705 0)
(6.22973 0.000935258 0)
(6.22179 0.000975926 0)
(6.2139 0.00104089 0)
(6.20593 0.00113633 0)
(6.19768 0.00126945 0)
(6.18895 0.00144904 0)
(6.17954 0.00168566 0)
(6.16918 0.00199147 0)
(6.15762 0.00238012 0)
(6.14455 0.00286732 0)
(6.12966 0.003471 0)
(6.1126 0.00421158 0)
(6.093 0.00511168 0)
(6.07047 0.0061971 0)
(6.04456 0.00749611 0)
(6.01484 0.00904269 0)
(5.98081 0.0108724 0)
(5.94199 0.0130306 0)
(5.89777 0.0155603 0)
(5.84767 0.0185278 0)
(5.79091 0.0219817 0)
(5.72705 0.0260309 0)
(5.65495 0.030713 0)
(5.57444 0.0362435 0)
(5.48343 0.0425865 0)
(5.38277 0.0502532 0)
(5.26795 0.0588873 0)
(5.14353 0.0698907 0)
(4.99788 0.0817431 0)
(4.84625 0.098754 0)
(4.65604 0.115211 0)
(4.47608 0.145234 0)
(4.21159 0.166996 0)
(4.01279 0.231033 0)
(3.60818 0.248242 0)
(3.42962 0.412316 0)
(2.78863 0.3654 0)
(8.01297 0.0237931 0)
(8.07466 0.019484 0)
(7.95545 0.0158589 0)
(7.68117 0.0119413 0)
(7.38248 0.00855804 0)
(7.15061 0.00620606 0)
(6.98701 0.00476924 0)
(6.87142 0.00386564 0)
(6.78399 0.00326363 0)
(6.71532 0.00282385 0)
(6.65899 0.00249232 0)
(6.61205 0.00222964 0)
(6.57197 0.00201995 0)
(6.53751 0.00184636 0)
(6.50746 0.00170263 0)
(6.4811 0.0015807 0)
(6.45777 0.00147705 0)
(6.437 0.00138775 0)
(6.4184 0.00131047 0)
(6.40165 0.00124334 0)
(6.38651 0.001185 0)
(6.37275 0.00113451 0)
(6.36018 0.00109174 0)
(6.34865 0.00105644 0)
(6.33802 0.00102918 0)
(6.32814 0.00101114 0)
(6.31889 0.00100394 0)
(6.31015 0.00101008 0)
(6.30178 0.00103275 0)
(6.29364 0.00107622 0)
(6.2856 0.00114609 0)
(6.27747 0.00124901 0)
(6.26909 0.00139282 0)
(6.26025 0.00158702 0)
(6.25075 0.00184307 0)
(6.24032 0.00217413 0)
(6.22871 0.00259498 0)
(6.21562 0.00312263 0)
(6.20073 0.00377648 0)
(6.1837 0.00457863 0)
(6.16416 0.00555357 0)
(6.14172 0.00672919 0)
(6.11595 0.00813606 0)
(6.08641 0.00981092 0)
(6.05262 0.0117922 0)
(6.01407 0.0141288 0)
(5.97021 0.0168672 0)
(5.92052 0.0200788 0)
(5.86426 0.0238162 0)
(5.80098 0.0281968 0)
(5.72955 0.0332616 0)
(5.6498 0.0392431 0)
(5.55966 0.046102 0)
(5.46005 0.0543831 0)
(5.34667 0.0637058 0)
(5.22389 0.0755571 0)
(5.08041 0.0883307 0)
(4.93113 0.106579 0)
(4.74439 0.12428 0)
(4.56778 0.15624 0)
(4.30976 0.179695 0)
(4.1157 0.246883 0)
(3.72596 0.266622 0)
(3.55335 0.434163 0)
(2.94812 0.390673 0)
(8.01206 0.023648 0)
(8.06662 0.0195334 0)
(8.01205 0.0164808 0)
(7.78758 0.0129854 0)
(7.50937 0.00962318 0)
(7.2699 0.00706589 0)
(7.09386 0.00541105 0)
(6.96864 0.00435459 0)
(6.87471 0.00365558 0)
(6.80162 0.00315153 0)
(6.74214 0.00277495 0)
(6.6929 0.00247866 0)
(6.65109 0.0022431 0)
(6.61523 0.0020487 0)
(6.584 0.00188793 0)
(6.55664 0.00175169 0)
(6.53245 0.001636 0)
(6.51094 0.00153641 0)
(6.49169 0.00145027 0)
(6.47437 0.00137549 0)
(6.45872 0.00131049 0)
(6.44451 0.00125423 0)
(6.43154 0.00120655 0)
(6.41964 0.00116707 0)
(6.40868 0.00113644 0)
(6.39851 0.00111591 0)
(6.389 0.00110719 0)
(6.38001 0.00111294 0)
(6.37142 0.00113664 0)
(6.36309 0.00118289 0)
(6.35486 0.00125769 0)
(6.34658 0.00136824 0)
(6.33806 0.00152296 0)
(6.3291 0.00173214 0)
(6.31949 0.00200814 0)
(6.30899 0.00236516 0)
(6.29732 0.00281913 0)
(6.28419 0.00338839 0)
(6.2693 0.00409388 0)
(6.25229 0.00495942 0)
(6.23281 0.0060114 0)
(6.21045 0.00727987 0)
(6.18481 0.00879779 0)
(6.15544 0.0106047 0)
(6.12186 0.0127419 0)
(6.08359 0.0152621 0)
(6.04006 0.0182152 0)
(5.99077 0.021678 0)
(5.93499 0.0257071 0)
(5.87225 0.0304285 0)
(5.80146 0.0358875 0)
(5.72242 0.0423326 0)
(5.63314 0.0497201 0)
(5.53464 0.0586278 0)
(5.42269 0.0686509 0)
(5.30154 0.0813654 0)
(5.16016 0.0950774 0)
(5.01317 0.114575 0)
(4.82981 0.13354 0)
(4.65648 0.167427 0)
(4.40475 0.192588 0)
(4.21535 0.262807 0)
(3.83977 0.285086 0)
(3.67336 0.455629 0)
(3.10038 0.415959 0)
(8.01294 0.0235179 0)
(8.05521 0.0194957 0)
(8.05084 0.016915 0)
(7.87989 0.0139199 0)
(7.62987 0.0106919 0)
(7.38985 0.00799741 0)
(7.20283 0.00612924 0)
(7.06738 0.00490379 0)
(6.96615 0.00409258 0)
(6.88798 0.00351391 0)
(6.82485 0.00308525 0)
(6.77285 0.00275028 0)
(6.729 0.00248537 0)
(6.69153 0.00226764 0)
(6.65903 0.00208812 0)
(6.63059 0.00193627 0)
(6.60548 0.00180738 0)
(6.58316 0.00169655 0)
(6.56321 0.00160074 0)
(6.54529 0.00151762 0)
(6.52909 0.00144537 0)
(6.5144 0.00138282 0)
(6.501 0.00132979 0)
(6.48872 0.00128574 0)
(6.47741 0.0012514 0)
(6.46692 0.00122812 0)
(6.45712 0.00121764 0)
(6.44787 0.00122283 0)
(6.43905 0.00124744 0)
(6.4305 0.00129643 0)
(6.42209 0.00137621 0)
(6.41363 0.0014945 0)
(6.40496 0.00166037 0)
(6.39588 0.00188491 0)
(6.38616 0.00218139 0)
(6.37557 0.0025651 0)
(6.36383 0.00305314 0)
(6.35066 0.00366522 0)
(6.33575 0.00442386 0)
(6.31875 0.00535465 0)
(6.29931 0.00648595 0)
(6.27704 0.00785004 0)
(6.25151 0.00948229 0)
(6.2223 0.0114251 0)
(6.18892 0.0137229 0)
(6.15091 0.016432 0)
(6.10769 0.0196061 0)
(6.05878 0.0233274 0)
(6.00344 0.0276567 0)
(5.94123 0.0327293 0)
(5.87102 0.0385943 0)
(5.79267 0.0455146 0)
(5.70432 0.0534429 0)
(5.60694 0.0629882 0)
(5.49637 0.0737266 0)
(5.3768 0.0873203 0)
(5.23748 0.101988 0)
(5.09273 0.122749 0)
(4.91266 0.142994 0)
(4.74252 0.178798 0)
(4.49691 0.20568 0)
(4.31208 0.278808 0)
(3.95001 0.303631 0)
(3.78983 0.476748 0)
(3.24636 0.441267 0)
(8.01431 0.0234003 0)
(8.04687 0.0193982 0)
(8.07277 0.0171768 0)
(7.95801 0.0147188 0)
(7.7393 0.0117241 0)
(7.50889 0.00897926 0)
(7.31402 0.00692493 0)
(7.16826 0.00552036 0)
(7.05896 0.00458138 0)
(6.97506 0.00391632 0)
(6.90778 0.00342776 0)
(6.85263 0.00304852 0)
(6.80634 0.00274979 0)
(6.76697 0.00250563 0)
(6.73298 0.00230496 0)
(6.70333 0.00213568 0)
(6.67723 0.00199238 0)
(6.65404 0.00186932 0)
(6.63335 0.00176291 0)
(6.61476 0.00167069 0)
(6.59798 0.0015905 0)
(6.58277 0.00152111 0)
(6.56891 0.00146224 0)
(6.55621 0.00141318 0)
(6.54453 0.00137476 0)
(6.5337 0.00134843 0)
(6.52359 0.00133593 0)
(6.51407 0.00134035 0)
(6.505 0.00136575 0)
(6.49623 0.00141742 0)
(6.48761 0.0015022 0)
(6.47897 0.00162836 0)
(6.47014 0.00180561 0)
(6.46091 0.00204587 0)
(6.45107 0.00236339 0)
(6.44038 0.00277452 0)
(6.42857 0.00329761 0)
(6.41535 0.00395376 0)
(6.40041 0.00476712 0)
(6.38341 0.0057651 0)
(6.364 0.0069781 0)
(6.34179 0.00844065 0)
(6.31637 0.0101906 0)