/*--------------------------------*- C++ -*----------------------------------*\
| =========                 |                                                 |
| \\      /  F ield         | OpenFOAM: The Open Source CFD Toolbox           |
|  \\    /   O peration     | Version:  v1906                                 |
|   \\  /    A nd           | Web:      www.OpenFOAM.com                      |
|    \\/     M anipulation  |                                                 |
\*---------------------------------------------------------------------------*/
FoamFile
{
    version     2.0;
    format      ascii;
    class       volScalarField;
    location    "0.2";
    object      yPlus;
}
// * * * * * * * * * * * * * * * * * * * * * * * * * * * * * * * * * * * * * //

dimensions      [0 0 0 0 0 0 0];


internalField   uniform 0;

boundaryField
{
    inlet
    {
        type            calculated;
        value           nonuniform List<scalar> 
200
(
359.74
513.863
428.224
345.094
263.364
184.289
109.433
35.145
30.7511
38.3609
39.4675
35.5356
32.9368
29.4616
28.7745
30.9017
31.327
31.4882
31.7886
31.9359
31.9589
31.8923
31.7907
31.6815
31.5804
31.491
31.4019
31.3086
31.2112
31.1091
31.0042
30.8959
30.7809
30.6658
30.5438
30.418
30.2883
30.1513
30.01
29.8645
29.7145
29.5599
29.3969
29.229
29.0559
28.8738
28.6899
28.4965
28.2934
28.088
27.8723
27.6501
27.4211
27.1851
26.9377
26.6871
26.4245
26.154
25.8754
25.5837
25.3107
25.0559
24.8015
24.5476
24.2993
24.0517
23.8047
23.5639
23.324
23.0852
22.8533
22.6228
22.3937
22.1725
21.9532
21.7359
21.5209
21.3151
21.1122
20.9123
20.7231
20.53
20.3563
20.1792
20.0149
19.8558
19.7023
19.5546
19.422
19.2962
19.1866
19.0757
18.9819
18.8966
18.8295
18.7619
18.7132
18.674
18.6543
18.6444
18.6444
18.6543
18.674
18.7132
18.7619
18.8295
18.8966
18.9819
19.0757
19.1866
19.2962
19.422
19.5546
19.7023
19.8558
20.0149
20.1792
20.3563
20.53
20.7231
20.9123
21.1122
21.3151
21.5209
21.7359
21.9532
22.1725
22.3937
22.6228
22.8533
23.0852
23.324
23.5639
23.8047
24.0517
24.2993
24.5476
24.8015
25.0559
25.3107
25.5837
25.8754
26.154
26.4245
26.6871
26.9377
27.1851
27.4211
27.6501
27.8723
28.088
28.2934
28.4965
28.6899
28.8738
29.0559
29.229
29.3969
29.5599
29.7145
29.8645
30.01
30.1513
30.2883
30.418
30.5438
30.6658
30.7809
30.8959
31.0042
31.1091
31.2112
31.3086
31.4019
31.491
31.5804
31.6815
31.7907
31.8921
31.9587
31.9359
31.7911
31.4875
31.3267
30.9062
28.7744
29.4616
32.9368
35.5356
39.4675
38.3609
30.7511
35.1451
109.433
184.289
263.364
345.094
428.224
513.863
359.74
)
;
    }
    outlet
    {
        type            calculated;
        value           uniform 0;
    }
    topWall
    {
        type            calculated;
        value           nonuniform List<scalar> 
400
(
10.5698
9.38883
9.04037
8.83063
8.66051
8.535
8.43517
8.35592
8.28958
8.23447
8.18712
8.14657
8.11108
8.08002
8.05247
8.02797
8.00603
7.9863
7.96849
7.95234
7.93765
7.92428
7.91209
7.90099
7.89088
7.88173
7.8735
7.86624
7.85994
7.85467
7.85057
7.84775
7.84637
7.84657
7.8486
7.85278
7.8594
7.86876
7.88115
7.89695
7.91641
7.93988
7.96757
7.99967
8.03639
8.07776
8.12384
8.17454
8.22976
8.28928
8.35283
8.42009
8.49069
8.56421
8.64027
8.71834
8.79809
8.87887
8.96063
9.04231
9.12471
9.20538
9.28763
9.36502
9.44682
9.48497
9.47618
9.46716
9.45785
9.44843
9.43957
9.4313
9.42356
9.41622
9.40919
9.40241
9.39583
9.38938
9.38302
9.3767
9.37041
9.36411
9.35777
9.3514
9.34496
9.33847
9.33189
9.32526
9.31856
9.31179
9.30496
9.29806
9.29112
9.28413
9.27709
9.27001
9.26291
9.25577
9.2486
9.24142
9.23421
9.22696
9.21968
9.21235
9.20496
9.1975
9.18995
9.1823
9.17455
9.16667
9.15867
9.15055
9.14231
9.13394
9.12545
9.11683
9.10808
9.09923
9.09025
9.08118
9.072
9.06273
9.05337
9.04394
9.03445
9.02488
9.01526
9.0056
8.99589
8.98614
8.97637
8.96658
8.95676
8.94695
8.93712
8.9273
8.91749
8.90769
8.89791
8.88815
8.87842
8.86873
8.85906
8.84944
8.83987
8.83034
8.82087
8.81145
8.80208
8.79278
8.78355
8.77438
8.76529
8.75627
8.74731
8.73843
8.72964
8.72092
8.71229
8.70373
8.69526
8.68688
8.67858
8.67037
8.66226
8.65422
8.64629
8.63844
8.63069
8.62302
8.61546
8.60799
8.60061
8.59333
8.58614
8.57905
8.57206
8.56516
8.55837
8.55167
8.54508
8.53861
8.53219
8.52607
8.5196
8.52673
8.54645
8.56642
8.5862
8.60579
8.62528
8.64467
8.664
8.6833
8.7026
8.7219
8.74123
8.76058
8.77995
8.79934
8.81876
8.8382
8.85766
8.87712
8.89658
8.91605
8.9355
8.95495
8.97436
8.99375
9.01309
9.03238
9.05161
9.07077
9.08985
9.10883
9.12772
9.14648
9.16512
9.18362
9.20197
9.22016
9.23817
9.25598
9.2736
9.291
9.30816
9.32509
9.34177
9.35816
9.37428
9.39009
9.4056
9.42078
9.43561
9.45007
9.46416
9.47786
9.49117
9.50406
9.51655
9.5286
9.54021
9.55138
9.5621
9.57236
9.58214
9.59144
9.60027
9.60859
9.61642
9.62376
9.63058
9.63689
9.64268
9.64795
9.65271
9.65694
9.66063
9.66378
9.66634
9.66824
9.66955
9.67031
9.67055
9.6703
9.66959
9.6684
9.66676
9.66467
9.66213
9.65917
9.65578
9.65197
9.64775
9.6431
9.63808
9.63269
9.62696
9.6209
9.61456
9.60795
9.60109
9.59401
9.58669
9.57917
9.57146
9.56359
9.55559
9.5475
9.53935
9.53119
9.52301
9.51487
9.50676
9.49873
9.49083
9.48309
9.47556
9.46821
9.46106
9.45413
9.44737
9.44085
9.43457
9.42857
9.42286
9.41747
9.41238
9.40762
9.40321
9.3992
9.39559
9.39242
9.38969
9.38744
9.3857
9.38449
9.38383
9.38374
9.38416
9.38514
9.38674
9.38897
9.39191
9.39554
9.39992
9.40496
9.41093
9.4174
9.4252
9.43279
9.44317
9.45081
9.46597
9.44831
9.39965
9.35685
9.31385
9.27105
9.22811
9.18507
9.14208
9.09925
9.05668
9.01451
8.97282
8.93175
8.89141
8.85192
8.81337
8.77589
8.73956
8.70446
8.67064
8.63816
8.60702
8.57724
8.54877
8.52157
8.49558
8.47069
8.44674
8.42357
8.40101
8.37882
8.35678
8.33462
8.31204
8.28871
8.26429
8.23841
8.21074
8.18105
8.14907
8.11457
8.07741
8.0375
7.99496
7.95018
7.90399
7.85789
7.81404
7.77498
7.74298
7.71912
7.70259
7.69045
7.67844
7.66264
7.64137
7.61586
7.58952
7.56528
7.54504
7.52682
7.51269
7.49346
7.48023
7.98965
)
;
    }
    bottomWall
    {
        type            calculated;
        value           nonuniform List<scalar> 
400
(
10.5698
9.38883
9.04037
8.83063
8.66051
8.535
8.43517
8.35592
8.28958
8.23447
8.18712
8.14658
8.11109
8.08002
8.05245
8.02797
8.00601
7.98627
7.96841
7.9522
7.93742
7.92387
7.91142
7.89992
7.8892
7.87913
7.86959
7.86042
7.85145
7.84251
7.83341
7.82391
7.81374
7.8026
7.79016
7.77605
7.75984
7.74108
7.71922
7.69372
7.66392
7.6292
7.58876
7.54181
7.48743
7.42471
7.35246
7.26963
7.1746
7.06626
6.94209
6.80135
6.63926
6.45692
6.24347
6.00711
5.71851
5.41081
4.99519
4.56293
3.86194
3.26886
2.08529
1.64402
2.61052
2.7344
3.85072
4.28574
4.8398
5.26484
5.61529
5.90986
6.1597
6.37598
6.56183
6.72023
6.85766
6.97972
7.09023
7.19164
7.2856
7.37315
7.45519
7.53233
7.60518
7.67416
7.73968
7.80212
7.86175
7.91885
7.97368
8.02646
8.07741
8.12669
8.17448
8.22094
8.26619
8.31037
8.35357
8.3959
8.43739
8.47814
8.51816
8.55747
8.59611
8.63408
8.6714
8.70805
8.74408
8.77947
8.81422
8.84838
8.88192
8.91489
8.94727
8.97909
9.01036
9.0411
9.07131
9.10102
9.13022
9.15894
9.18719
9.21497
9.24232
9.26921
9.29569
9.32176
9.34745
9.37283
9.39792
9.42282
9.44762
9.47236
9.49712
9.52197
9.54694
9.57211
9.59752
9.62323
9.64929
9.67574
9.70261
9.72995
9.75778
9.78614
9.81504
9.84454
9.87465
9.90538
9.93672
9.96867
10.0012
10.0344
10.0681
10.1025
10.1374
10.173
10.2094
10.2465
10.2847
10.3242
10.365
10.4072
10.4509
10.4962
10.5434
10.5928
10.6447
10.6993
10.7565
10.8166
10.8796
10.9457
11.0153
11.089
11.1675
11.2521
11.3449
11.4451
11.5623
11.6847
11.9074
11.9432
12.6524
11.8286
8.14053
3.23514
4.29284
4.01322
4.36089
4.34023
4.55589
4.62378
4.75562
4.83243
4.92882
4.99811
5.06688
5.11996
5.16918
5.20974
5.24684
5.27854
5.3071
5.33235
5.35562
5.37622
5.39454
5.41067
5.42439
5.4359
5.44539
5.45357
5.46025
5.46529
5.46827
5.46983
5.47108
5.47231
5.47307
5.47237
5.47019
5.4675
5.46511
5.46203
5.45745
5.45202
5.44627
5.43937
5.43153
5.42333
5.4143
5.40456
5.39396
5.38235
5.36997
5.3564
5.34238
5.32716
5.31136
5.2945
5.27695
5.25843
5.23912
5.2192
5.198
5.17614
5.15294
5.12917
5.10491
5.07914
5.0527
5.02587
4.99791
4.96926
4.94036
4.91041
4.87934
4.84827
4.81685
4.78388
4.74974
4.71582
4.68214
4.64735
4.61084
4.57376
4.53754
4.50163
4.46474
4.42617
4.38663
4.34755
4.30934
4.27154
4.23316
4.19369
4.15324
4.11226
4.07094
4.02977
3.98929
3.94962
3.91031
3.87099
3.83144
3.79181
3.75236
3.71326
3.67445
3.63601
3.59808
3.56056
3.52337
3.48658
3.45043
3.4153
3.38146
3.34855
3.31583
3.28288
3.25031
3.21902
3.18926
3.15916
3.12988
3.10143
3.07379
3.04654
3.02088
2.99461
2.97087
2.94588
2.92416
2.89984
2.88074
2.85671
2.84109
2.81652
2.80538
2.77781
2.76857
2.72681
2.7435
2.71805
2.74521
2.6809
2.73437
2.63689
2.72127
2.59839
2.68984
2.53305
2.74255
3.17946
3.1707
3.25717
3.48663
3.5463
3.71684
3.7911
3.92598
4.01117
4.12722
4.21847
4.32507
4.41925
4.52057
4.61533
4.7129
4.80645
4.90036
4.99121
5.08101
5.16806
5.25324
5.33567
5.41549
5.49266
5.5675
5.63966
5.70921
5.77612
5.84047
5.90251
5.96238
6.02026
6.07612
6.12999
6.18188
6.23193
6.28034
6.32737
6.37314
6.41645
6.45162
6.48661
6.5226
6.55945
6.59677
6.63417
6.67113
6.70685
6.74038
6.77076
6.7973
6.81974
6.83854
6.85524
6.87217
6.89139
6.91339
6.93725
6.96052
6.98323
7.00104
7.02473
7.02462
7.58987
)
;
    }
    defaultFaces
    {
        type            empty;
    }
}


// ************************************************************************* //
