/*--------------------------------*- C++ -*----------------------------------*\
| =========                 |                                                 |
| \\      /  F ield         | OpenFOAM: The Open Source CFD Toolbox           |
|  \\    /   O peration     | Version:  v1906                                 |
|   \\  /    A nd           | Web:      www.OpenFOAM.com                      |
|    \\/     M anipulation  |                                                 |
\*---------------------------------------------------------------------------*/
FoamFile
{
    version     2.0;
    format      ascii;
    class       volScalarField;
    location    "0.3";
    object      nut;
}
// * * * * * * * * * * * * * * * * * * * * * * * * * * * * * * * * * * * * * //

dimensions      [0 2 -1 0 0 0 0];


internalField   nonuniform List<scalar> 
80000
(
1.28115e-06
1.30076e-06
1.27572e-06
1.25481e-06
1.23867e-06
1.22732e-06
1.21838e-06
1.21111e-06
1.20497e-06
1.19978e-06
1.19529e-06
1.19141e-06
1.18799e-06
1.18497e-06
1.18228e-06
1.17988e-06
1.17772e-06
1.17577e-06
1.174e-06
1.17238e-06
1.17091e-06
1.16955e-06
1.16831e-06
1.16715e-06
1.16608e-06
1.16507e-06
1.16412e-06
1.1632e-06
1.16232e-06
1.16144e-06
1.16055e-06
1.15964e-06
1.15867e-06
1.15762e-06
1.15647e-06
1.15518e-06
1.1537e-06
1.152e-06
1.15004e-06
1.14775e-06
1.14509e-06
1.14198e-06
1.13836e-06
1.13414e-06
1.12924e-06
1.12355e-06
1.11696e-06
1.10934e-06
1.10051e-06
1.09033e-06
1.07853e-06
1.0649e-06
1.04902e-06
1.03064e-06
1.00897e-06
9.83725e-07
9.53277e-07
9.17406e-07
8.72165e-07
7.87014e-07
5.78479e-07
4.22521e-07
1.77248e-07
1.11077e-07
2.74453e-07
7.4495e-06
8.60915e-06
8.98201e-06
8.73571e-06
8.54408e-06
8.42913e-06
8.34387e-06
8.27403e-06
8.21511e-06
8.16485e-06
8.12143e-06
8.08361e-06
8.05035e-06
8.0209e-06
7.99468e-06
7.9712e-06
7.95007e-06
7.93098e-06
7.91367e-06
7.8979e-06
7.88349e-06
7.87027e-06
7.85811e-06
7.84686e-06
7.83642e-06
7.82666e-06
7.81747e-06
7.80874e-06
7.80034e-06
7.79216e-06
7.78403e-06
7.77581e-06
7.76732e-06
7.75836e-06
7.74871e-06
7.73812e-06
7.72634e-06
7.71305e-06
7.69793e-06
7.68062e-06
7.66075e-06
7.63788e-06
7.61157e-06
7.58133e-06
7.54663e-06
7.50689e-06
7.46149e-06
7.4097e-06
7.35083e-06
7.2839e-06
7.20814e-06
7.12204e-06
7.02496e-06
6.91399e-06
6.78951e-06
6.64426e-06
6.48363e-06
6.28438e-06
6.06894e-06
5.62558e-06
5.31494e-06
4.44303e-06
4.36096e-06
2.23561e-06
2.37636e-06
7.75148e-06
1.4378e-05
1.62106e-05
1.61703e-05
1.59541e-05
1.58138e-05
1.57117e-05
1.56256e-05
1.5551e-05
1.54852e-05
1.54272e-05
1.53757e-05
1.53298e-05
1.52885e-05
1.52514e-05
1.52179e-05
1.51875e-05
1.51599e-05
1.51347e-05
1.51117e-05
1.50905e-05
1.5071e-05
1.50531e-05
1.50364e-05
1.50209e-05
1.50064e-05
1.49928e-05
1.49798e-05
1.49675e-05
1.49554e-05
1.49436e-05
1.49318e-05
1.49197e-05
1.49071e-05
1.48937e-05
1.48793e-05
1.48634e-05
1.48457e-05
1.48258e-05
1.48032e-05
1.47774e-05
1.4748e-05
1.47144e-05
1.46758e-05
1.46318e-05
1.45815e-05
1.45242e-05
1.44589e-05
1.43849e-05
1.43006e-05
1.42055e-05
1.40967e-05
1.39752e-05
1.38334e-05
1.36782e-05
1.34878e-05
1.32903e-05
1.30142e-05
1.27662e-05
1.22694e-05
1.2021e-05
1.08651e-05
1.08481e-05
7.85814e-06
8.83643e-06
7.52966e-06
1.82864e-05
2.24796e-05
2.32207e-05
2.31938e-05
2.31302e-05
2.30812e-05
2.30322e-05
2.29833e-05
2.29346e-05
2.28882e-05
2.28443e-05
2.28033e-05
2.27652e-05
2.27299e-05
2.26972e-05
2.26671e-05
2.26392e-05
2.26134e-05
2.25895e-05
2.25673e-05
2.25468e-05
2.25276e-05
2.25097e-05
2.2493e-05
2.24773e-05
2.24624e-05
2.24482e-05
2.24346e-05
2.24213e-05
2.24082e-05
2.2395e-05
2.23816e-05
2.23675e-05
2.23526e-05
2.23364e-05
2.23186e-05
2.22988e-05
2.22765e-05
2.22512e-05
2.22224e-05
2.21893e-05
2.21516e-05
2.21083e-05
2.20587e-05
2.2002e-05
2.19373e-05
2.18634e-05
2.17795e-05
2.16835e-05
2.15752e-05
2.14503e-05
2.13109e-05
2.11464e-05
2.09669e-05
2.07422e-05
2.05113e-05
2.01764e-05
1.98843e-05
1.92689e-05
1.89594e-05
1.74823e-05
1.72656e-05
1.36425e-05
1.1918e-05
6.70259e-06
2.01947e-05
2.78283e-05
2.99162e-05
3.03847e-05
3.05364e-05
3.062e-05
3.06647e-05
3.06842e-05
3.06859e-05
3.06775e-05
3.06627e-05
3.06444e-05
3.06241e-05
3.0603e-05
3.05819e-05
3.05611e-05
3.05409e-05
3.05215e-05
3.05029e-05
3.04852e-05
3.04683e-05
3.04524e-05
3.04372e-05
3.04227e-05
3.04089e-05
3.03956e-05
3.03827e-05
3.03701e-05
3.03577e-05
3.03451e-05
3.03322e-05
3.03187e-05
3.03043e-05
3.02886e-05
3.02712e-05
3.02518e-05
3.02297e-05
3.02044e-05
3.01754e-05
3.01419e-05
3.01031e-05
3.00584e-05
3.00068e-05
2.99473e-05
2.98788e-05
2.98003e-05
2.971e-05
2.96069e-05
2.94883e-05
2.93539e-05
2.9198e-05
2.90228e-05
2.88149e-05
2.85863e-05
2.82983e-05
2.79985e-05
2.75642e-05
2.71731e-05
2.63817e-05
2.59244e-05
2.40608e-05
2.31183e-05
1.90783e-05
1.45004e-05
5.24709e-06
2.0873e-05
3.17156e-05
3.59107e-05
3.72305e-05
3.77826e-05
3.81033e-05
3.83124e-05
3.84532e-05
3.85465e-05
3.86089e-05
3.86498e-05
3.8676e-05
3.86918e-05
3.87006e-05
3.87041e-05
3.87042e-05
3.87017e-05
3.86974e-05
3.86919e-05
3.86855e-05
3.86786e-05
3.86713e-05
3.86637e-05
3.86559e-05
3.86481e-05
3.864e-05
3.86318e-05
3.86233e-05
3.86143e-05
3.86047e-05
3.85942e-05
3.85825e-05
3.85693e-05
3.85541e-05
3.85365e-05
3.8516e-05
3.8492e-05
3.84636e-05
3.84303e-05
3.83911e-05
3.8345e-05
3.82912e-05
3.82284e-05
3.81555e-05
3.80708e-05
3.7973e-05
3.78599e-05
3.77303e-05
3.75803e-05
3.74096e-05
3.72109e-05
3.69864e-05
3.67196e-05
3.64238e-05
3.60525e-05
3.56595e-05
3.51004e-05
3.45756e-05
3.35798e-05
3.29117e-05
3.06609e-05
2.86168e-05
2.44891e-05
1.73185e-05
3.20227e-06
2.06177e-05
3.37581e-05
4.09928e-05
4.35205e-05
4.46943e-05
4.53811e-05
4.58402e-05
4.6165e-05
4.63985e-05
4.65704e-05
4.66985e-05
4.67952e-05
4.68689e-05
4.6926e-05
4.69701e-05
4.70048e-05
4.70319e-05
4.70533e-05
4.70701e-05
4.70832e-05
4.70935e-05
4.71014e-05
4.71074e-05
4.71118e-05
4.71147e-05
4.71164e-05
4.71167e-05
4.71159e-05
4.71137e-05
4.711e-05
4.71046e-05
4.70971e-05
4.70871e-05
4.70743e-05
4.70579e-05
4.70375e-05
4.70122e-05
4.69812e-05
4.69435e-05
4.68981e-05
4.68438e-05
4.67794e-05
4.67034e-05
4.66142e-05
4.65099e-05
4.63887e-05
4.62479e-05
4.60857e-05
4.58976e-05
4.56825e-05
4.54319e-05
4.51477e-05
4.48103e-05
4.44336e-05
4.39643e-05
4.34603e-05
4.27589e-05
4.20751e-05
4.08605e-05
3.98294e-05
3.7311e-05
3.40222e-05
3.00258e-05
2.04894e-05
4.30506e-07
1.97259e-05
3.45556e-05
4.50296e-05
4.90854e-05
5.11249e-05
5.23296e-05
5.31391e-05
5.3721e-05
5.4151e-05
5.44771e-05
5.47288e-05
5.49262e-05
5.50832e-05
5.52099e-05
5.53131e-05
5.53983e-05
5.5469e-05
5.55282e-05
5.55782e-05
5.56205e-05
5.56566e-05
5.56876e-05
5.57141e-05
5.57368e-05
5.57563e-05
5.57728e-05
5.57866e-05
5.57977e-05
5.58062e-05
5.5812e-05
5.58149e-05
5.58144e-05
5.58103e-05
5.58021e-05
5.57889e-05
5.57702e-05
5.5745e-05
5.57122e-05
5.56707e-05
5.56193e-05
5.55565e-05
5.54808e-05
5.53903e-05
5.52831e-05
5.51568e-05
5.50093e-05
5.48372e-05
5.46381e-05
5.44066e-05
5.41413e-05
5.3832e-05
5.34802e-05
5.30634e-05
5.25958e-05
5.20174e-05
5.13889e-05
5.0533e-05
4.96688e-05
4.82266e-05
4.64197e-05
4.40252e-05
3.94658e-05
3.57239e-05
2.40289e-05
1.6174e-07
1.89151e-05
3.44655e-05
4.71672e-05
5.37867e-05
5.69408e-05
5.88343e-05
6.01094e-05
6.10318e-05
6.17224e-05
6.22539e-05
6.26707e-05
6.30033e-05
6.32724e-05
6.34935e-05
6.36769e-05
6.38309e-05
6.39612e-05
6.40725e-05
6.41681e-05
6.42507e-05
6.43226e-05
6.43855e-05
6.44405e-05
6.4489e-05
6.45316e-05
6.4569e-05
6.46016e-05
6.46298e-05
6.46536e-05
6.46731e-05
6.4688e-05
6.46982e-05
6.47031e-05
6.47022e-05
6.46948e-05
6.46799e-05
6.46566e-05
6.46236e-05
6.45796e-05
6.4523e-05
6.44522e-05
6.43652e-05
6.42599e-05
6.41339e-05
6.39844e-05
6.38088e-05
6.3603e-05
6.33642e-05
6.3086e-05
6.27665e-05
6.23937e-05
6.19688e-05
6.14663e-05
6.09003e-05
6.0205e-05
5.94415e-05
5.84223e-05
5.73548e-05
5.5679e-05
5.29703e-05
5.08009e-05
4.49638e-05
4.12923e-05
2.79401e-05
1.29257e-07
1.8438e-05
3.36194e-05
4.77711e-05
5.75135e-05
6.20175e-05
6.47837e-05
6.66536e-05
6.80105e-05
6.90338e-05
6.9828e-05
7.0457e-05
7.09635e-05
7.13777e-05
7.17211e-05
7.20087e-05
7.22525e-05
7.24606e-05
7.26399e-05
7.27954e-05
7.2931e-05
7.30501e-05
7.31551e-05
7.32479e-05
7.33304e-05
7.34038e-05
7.3469e-05
7.35268e-05
7.35777e-05
7.36222e-05
7.36602e-05
7.36917e-05
7.37165e-05
7.37341e-05
7.3744e-05
7.37454e-05
7.37372e-05
7.37183e-05
7.36872e-05
7.36425e-05
7.35823e-05
7.35046e-05
7.34072e-05
7.32877e-05
7.31431e-05
7.29703e-05
7.2766e-05
7.25257e-05
7.22457e-05
7.1919e-05
7.15428e-05
7.11038e-05
7.06023e-05
7.00102e-05
6.93407e-05
6.85231e-05
6.76163e-05
6.6426e-05
6.49226e-05
6.32035e-05
5.95774e-05
5.70541e-05
5.04726e-05
4.67547e-05
3.22299e-05
2.66559e-09
1.68674e-05
3.20116e-05
4.72771e-05
5.95142e-05
6.62413e-05
7.00679e-05
7.26733e-05
7.45688e-05
7.6005e-05
7.71259e-05
7.80193e-05
7.87435e-05
7.93394e-05
7.98365e-05
8.02554e-05
8.06124e-05
8.0919e-05
8.11846e-05
8.14161e-05
8.1619e-05
8.17981e-05
8.19569e-05
8.2098e-05
8.2224e-05
8.23368e-05
8.24377e-05
8.25278e-05
8.26081e-05
8.26793e-05
8.27414e-05
8.27946e-05
8.28388e-05
8.28735e-05
8.28982e-05
8.29121e-05
8.29139e-05
8.29025e-05
8.28762e-05
8.28332e-05
8.27717e-05
8.26891e-05
8.25831e-05
8.24507e-05
8.22888e-05
8.20935e-05
8.18611e-05
8.15865e-05
8.12655e-05
8.08899e-05
8.04564e-05
7.99502e-05
7.93704e-05
7.86868e-05
7.79107e-05
7.69675e-05
7.59091e-05
7.45385e-05
7.23604e-05
7.03237e-05
6.6217e-05
6.31941e-05
5.59675e-05
5.22528e-05
3.69194e-05
4.45906e-08
1.38618e-05
2.98966e-05
4.59312e-05
5.9899e-05
6.95117e-05
7.45788e-05
7.8069e-05
8.06162e-05
8.25532e-05
8.40713e-05
8.52871e-05
8.62772e-05
8.70958e-05
8.77816e-05
8.83619e-05
8.88585e-05
8.92867e-05
8.96588e-05
8.99844e-05
9.02709e-05
9.05245e-05
9.07501e-05
9.09512e-05
9.11316e-05
9.12935e-05
9.14389e-05
9.15696e-05
9.16868e-05
9.17915e-05
9.18841e-05
9.19649e-05
9.20338e-05
9.20907e-05
9.21349e-05
9.21656e-05
9.21815e-05
9.21813e-05
9.21632e-05
9.21253e-05
9.20653e-05
9.19807e-05
9.18686e-05
9.17257e-05
9.15485e-05
9.13326e-05
9.10739e-05
9.07666e-05
9.04058e-05
8.99826e-05
8.94926e-05
8.89197e-05
8.8262e-05
8.74867e-05
8.66026e-05
8.55311e-05
8.42826e-05
8.25875e-05
7.98158e-05
7.73419e-05
7.28514e-05
6.93721e-05
6.14664e-05
5.77974e-05
4.19742e-05
2.47654e-08
1.04102e-05
2.77509e-05
4.38173e-05
5.90313e-05
7.09077e-05
7.8213e-05
8.27396e-05
8.60594e-05
8.85922e-05
9.05844e-05
9.21859e-05
9.34951e-05
9.45813e-05
9.54945e-05
9.62698e-05
9.69352e-05
9.75106e-05
9.80121e-05
9.8452e-05
9.884e-05
9.91844e-05
9.94913e-05
9.97657e-05
0.000100012
0.000100234
0.000100434
0.000100615
0.000100777
0.000100923
0.000101054
0.000101169
0.000101269
0.000101353
0.000101422
0.000101475
0.00010151
0.000101525
0.000101519
0.00010149
0.000101436
0.000101353
0.000101238
0.000101088
0.000100898
0.000100665
0.000100382
0.000100045
9.96473e-05
9.91789e-05
9.86348e-05
9.79975e-05
9.72637e-05
9.63981e-05
9.54052e-05
9.42018e-05
9.24391e-05
9.04252e-05
8.73009e-05
8.43957e-05
7.94816e-05
7.56219e-05
6.69992e-05
6.33809e-05
4.73057e-05
7.2878e-09
6.60285e-06
2.55544e-05
4.09479e-05
5.71268e-05
7.07811e-05
8.0468e-05
8.65848e-05
9.08023e-05
9.40324e-05
9.65813e-05
9.86372e-05
0.000100323
0.000101726
0.000102909
0.000103917
0.000104783
0.000105534
0.00010619
0.000106767
0.000107276
0.000107729
0.000108134
0.000108496
0.000108823
0.000109117
0.000109383
0.000109623
0.00010984
0.000110037
0.000110213
0.000110369
0.000110507
0.000110626
0.000110726
0.000110806
0.000110865
0.000110901
0.000110913
0.000110898
0.000110853
0.000110776
0.000110662
0.000110509
0.000110311
0.000110064
0.000109763
0.000109399
0.000108968
0.000108458
0.000107864
0.000107166
0.000106359
0.000105406
0.000104302
0.000102819
0.000100567
9.82176e-05
9.47975e-05
9.15189e-05
8.61259e-05
8.19361e-05
7.25859e-05
6.90027e-05
5.28217e-05
3.04431e-07
2.57685e-06
2.20074e-05
3.75545e-05
5.43192e-05
6.93787e-05
8.10696e-05
8.92454e-05
9.47476e-05
9.87809e-05
0.000101974
0.000104558
0.000106683
0.000108457
0.000109956
0.000111235
0.000112338
0.000113296
0.000114134
0.000114872
0.000115525
0.000116107
0.000116627
0.000117094
0.000117515
0.000117895
0.000118239
0.000118551
0.000118833
0.000119089
0.00011932
0.000119527
0.000119711
0.000119871
0.000120009
0.000120123
0.000120213
0.000120275
0.00012031
0.000120314
0.000120284
0.000120217
0.000120111
0.000119959
0.000119758
0.000119503
0.000119187
0.000118802
0.000118343
0.000117798
0.000117158
0.000116404
0.000115529
0.000114491
0.000113102
0.000111254
0.000108704
0.000106035
0.0001023
9.86959e-05
9.27944e-05
8.82991e-05
7.82312e-05
7.46705e-05
5.84471e-05
7.72817e-07
6.38223e-07
1.75857e-05
3.42328e-05
5.0724e-05
6.68405e-05
8.02555e-05
9.02895e-05
9.75289e-05
0.000102743
0.000106673
0.000109863
0.000112493
0.000114695
0.000116559
0.000118154
0.000119532
0.00012073
0.000121781
0.000122707
0.000123528
0.000124261
0.000124916
0.000125506
0.000126037
0.000126518
0.000126954
0.00012735
0.00012771
0.000128036
0.000128331
0.000128598
0.000128836
0.000129047
0.00012923
0.000129385
0.000129512
0.000129608
0.000129672
0.000129701
0.000129692
0.000129643
0.000129548
0.000129405
0.000129207
0.000128949
0.000128624
0.000128225
0.000127744
0.000127169
0.000126491
0.000125688
0.000124749
0.000123597
0.000121751
0.000119626
0.000116839
0.000113886
0.000109808
0.000105899
9.94816e-05
9.46954e-05
8.39283e-05
8.03942e-05
6.41238e-05
9.76138e-07
3.37161e-08
1.31263e-05
3.12804e-05
4.6515e-05
6.32916e-05
7.81631e-05
8.99089e-05
9.87653e-05
0.000105467
0.000110583
0.00011446
0.000117666
0.000120356
0.00012264
0.000124597
0.000126291
0.000127767
0.000129062
0.000130207
0.000131222
0.000132129
0.000132942
0.000133673
0.000134334
0.000134932
0.000135475
0.000135968
0.000136418
0.000136826
0.000137198
0.000137533
0.000137836
0.000138105
0.000138343
0.000138548
0.000138719
0.000138856
0.000138957
0.000139018
0.000139038
0.000139012
0.000138937
0.000138808
0.00013862
0.000138366
0.00013804
0.000137634
0.000137139
0.000136543
0.000135834
0.000134988
0.000133987
0.000132428
0.000130327
0.000127968
0.000124951
0.000121746
0.000117313
0.000113103
0.00010617
0.000101109
8.96633e-05
8.61809e-05
6.98116e-05
1.03863e-06
5.28906e-08
8.53177e-06
2.74546e-05
4.21576e-05
5.89275e-05
7.48707e-05
8.81992e-05
9.86213e-05
0.000106716
0.000113103
0.000118224
0.00012211
0.000125353
0.000128113
0.000130482
0.000132537
0.000134329
0.000135905
0.000137299
0.000138538
0.000139645
0.000140638
0.000141533
0.000142342
0.000143075
0.000143742
0.000144348
0.000144902
0.000145406
0.000145865
0.000146282
0.000146659
0.000146997
0.000147299
0.000147562
0.000147787
0.000147973
0.000148118
0.00014822
0.000148275
0.000148281
0.000148233
0.000148126
0.000147956
0.000147715
0.000147396
0.000146991
0.000146491
0.000145882
0.00014515
0.000144267
0.000142916
0.000141115
0.00013883
0.000136271
0.000133021
0.000129578
0.00012479
0.000120282
0.000112836
0.000107522
9.5418e-05
9.20307e-05
7.54872e-05
1.0544e-06
9.03652e-08
3.82516e-06
2.17422e-05
3.83215e-05
5.40099e-05
7.04861e-05
8.51948e-05
9.71584e-05
0.000106635
0.000114224
0.000120442
0.000125503
0.000129596
0.00013289
0.000135724
0.000138186
0.000140337
0.000142232
0.000143909
0.000145401
0.000146737
0.000147936
0.000149017
0.000149996
0.000150884
0.000151692
0.000152428
0.000153101
0.000153715
0.000154275
0.000154785
0.000155248
0.000155667
0.000156042
0.000156374
0.000156662
0.000156906
0.000157104
0.000157255
0.000157355
0.000157401
0.000157389
0.000157313
0.000157169
0.00015695
0.000156648
0.000156254
0.000155759
0.000155146
0.000154399
0.000153312
0.000151656
0.000149681
0.000147237
0.000144502
0.000141019
0.000137345
0.000132208
0.000127409
0.000119454
0.000113913
0.000101172
9.79354e-05
8.11392e-05
1.02989e-06
7.212e-07
2.59289e-07
1.60185e-05
3.4916e-05
4.88691e-05
6.5241e-05
8.09461e-05
9.43672e-05
0.000105261
0.00011407
0.000121333
0.000127408
0.000132495
0.000136785
0.000140233
0.000143151
0.000145706
0.000147958
0.000149955
0.000151734
0.000153328
0.00015476
0.000156052
0.000157224
0.000158288
0.000159257
0.00016014
0.000160949
0.000161688
0.000162363
0.00016298
0.000163543
0.000164053
0.000164513
0.000164924
0.000165286
0.000165598
0.00016586
0.000166069
0.000166223
0.000166318
0.000166351
0.000166317
0.00016621
0.000166022
0.000165747
0.000165375
0.000164895
0.000164289
0.000163427
0.000162039
0.000160223
0.00015811
0.000155515
0.000152618
0.000148908
0.000145009
0.00013953
0.000134452
0.000125994
0.000120258
0.000106904
0.000103879
8.67571e-05
1.00114e-06
9.82291e-07
1.17076e-07
1.05666e-05
2.91363e-05
4.41614e-05
5.95133e-05
7.56061e-05
9.024e-05
0.000102555
0.000112652
0.000120994
0.000128021
0.000133996
0.000139135
0.000143506
0.000147284
0.000150344
0.000152997
0.000155351
0.000157451
0.000159335
0.00016103
0.00016256
0.000163949
0.000165211
0.000166361
0.000167412
0.000168374
0.000169255
0.000170061
0.0001708
0.000171475
0.00017209
0.000172647
0.000173149
0.000173596
0.000173987
0.000174323
0.000174601
0.000174819
0.000174975
0.000175063
0.000175081
0.00017502
0.000174876
0.00017464
0.000174301
0.000173847
0.000173223
0.000172038
0.000170503
0.000168583
0.000166359
0.000163623
0.000160574
0.000156645
0.000152528
0.000146713
0.000141375
0.000132427
0.000126532
0.00011259
0.00010984
9.23187e-05
9.84697e-07
1.04645e-06
1.34374e-07
5.20139e-06
2.22162e-05
4.01507e-05
5.37722e-05
6.94977e-05
8.48658e-05
9.84721e-05
0.000109903
0.000119407
0.000127416
0.000134256
0.000140176
0.000145331
0.000149842
0.000153736
0.000157152
0.000160008
0.000162465
0.000164673
0.00016666
0.000168456
0.000170089
0.000171573
0.000172926
0.000174165
0.000175299
0.000176339
0.000177294
0.000178169
0.000178971
0.000179705
0.000180374
0.000180979
0.000181522
0.000182005
0.000182426
0.000182784
0.000183078
0.000183305
0.000183461
0.000183541
0.00018354
0.000183451
0.000183265
0.000182971
0.000182552
0.000181617
0.0001803
0.000178682
0.000176687
0.000174373
0.00017151
0.000168318
0.000164181
0.000159857
0.000153717
0.000148139
0.000138719
0.000132706
0.000118207
0.000115794
9.78099e-05
9.81336e-07
1.01446e-06
7.59612e-07
1.54932e-06
1.54071e-05
3.45031e-05
4.86719e-05
6.31042e-05
7.85154e-05
9.30562e-05
0.000105745
0.000116477
0.000125552
0.000133308
0.000140019
0.000145901
0.000151078
0.000155662
0.000159724
0.000163292
0.000166442
0.000169249
0.00017156
0.000173652
0.000175556
0.000177286
0.000178867
0.000180314
0.000181642
0.000182861
0.00018398
0.000185009
0.000185955
0.000186822
0.000187616
0.000188338
0.000188991
0.000189577
0.000190096
0.000190547
0.000190929
0.000191239
0.000191474
0.00019163
0.0001917
0.000191678
0.000191555
0.000191317
0.000190608
0.000189558
0.000188186
0.000186523
0.000184473
0.000182088
0.000179113
0.000175793
0.000171461
0.000166948
0.000160495
0.000154703
0.000144836
0.000138748
0.000123731
0.000121708
0.000103246
9.83895e-07
9.74788e-07
1.00442e-06
3.7011e-07
9.12387e-06
2.65424e-05
4.4288e-05
5.69886e-05
7.1673e-05
8.65231e-05
0.00010018
0.000112106
0.000122324
0.000131083
0.000138653
0.000145281
0.000151122
0.000156329
0.000160971
0.00016513
0.000168858
0.000172209
0.000175175
0.000177839
0.000180257
0.000182261
0.000184093
0.000185773
0.000187315
0.000188732
0.000190035
0.000191236
0.000192341
0.000193358
0.000194291
0.000195145
0.000195922
0.000196625
0.000197255
0.000197811
0.000198293
0.0001987
0.000199027
0.000199271
0.000199426
0.000199484
0.000199401
0.000198912
0.000198103
0.000197022
0.000195638
0.000193959
0.000191873
0.000189436
0.000186368
0.000182938
0.000178427
0.000173745
0.000166999
0.000161024
0.00015074
0.000144625
0.000129137
0.000127544
0.00010864
9.86709e-07
9.54373e-07
1.0497e-06
1.38814e-07
3.13553e-06
1.85603e-05
3.76152e-05
5.18305e-05
6.49621e-05
7.92993e-05
9.33918e-05
0.00010629
0.00011763
0.000127459
0.000135978
0.000143424
0.000149977
0.000155811
0.000161023
0.000165721
0.000169961
0.000173794
0.000177278
0.000180427
0.000183294
0.000185859
0.000188184
0.000190311
0.000192226
0.000193861
0.000195368
0.000196758
0.000198041
0.000199224
0.000200313
0.000201313
0.000202229
0.000203063
0.000203817
0.000204492
0.000205089
0.000205605
0.000206038
0.000206382
0.000206635
0.000206637
0.000206362
0.000205816
0.000205007
0.000203946
0.000202581
0.000200912
0.00019881
0.000196342
0.000193202
0.000189685
0.000185017
0.000180191
0.000173179
0.000167055
0.000156393
0.0001503
0.000134399
0.000133259
0.000113987
9.87704e-07
9.54398e-07
9.96744e-07
7.78495e-07
7.46917e-07
1.1266e-05
2.86036e-05
4.72515e-05
5.89764e-05
7.19874e-05
8.58037e-05
9.92122e-05
0.00011147
0.000122338
0.00013186
0.000140205
0.000147548
0.000154066
0.000159887
0.00016513
0.000169872
0.000174167
0.000178098
0.000181677
0.000184943
0.000187946
0.000190684
0.000193192
0.00019549
0.000197572
0.000199474
0.000201222
0.000202831
0.000204314
0.000205587
0.00020675
0.000207819
0.000208798
0.000209692
0.0002105
0.000211225
0.000211864
0.000212382
0.000212689
0.000212834
0.000212784
0.0002125
0.000211995
0.000211246
0.000210245
0.000208928
0.000207294
0.000205203
0.000202727
0.00019954
0.000195961
0.000191164
0.000186225
0.00017898
0.000172747
0.000161757
0.000155734
0.000139491
0.000138811
0.000119268
9.87446e-07
9.60819e-07
9.50852e-07
9.92301e-07
4.87635e-07
4.68796e-06
1.95854e-05
3.82005e-05
5.37709e-05
6.52518e-05
7.80679e-05
9.13092e-05
0.000104043
0.000115737
0.00012621
0.000135486
0.000143685
0.000150966
0.000157466
0.000163307
0.000168584
0.000173363
0.000177732
0.000181725
0.000185375
0.000188749
0.00019185
0.000194699
0.000197326
0.000199758
0.000201994
0.000204051
0.000205947
0.000207697
0.000209288
0.000210735
0.000212053
0.000213247
0.000214319
0.000215271
0.0002161
0.0002168
0.00021736
0.000217749
0.000217952
0.000217972
0.000217782
0.000217379
0.000216732
0.000215825
0.000214587
0.000213017
0.000210965
0.000208509
0.000205303
0.000201693
0.000196799
0.000191784
0.000184346
0.000178051
0.000166788
0.000160886
0.000144384
0.00014416
0.000124464
9.86992e-07
9.64574e-07
9.39463e-07
9.76042e-07
7.571e-07
1.48809e-06
1.13573e-05
2.80699e-05
4.67662e-05
5.96563e-05
7.09327e-05
8.32444e-05
9.58034e-05
0.000107888
0.000119078
0.000129198
0.00013826
0.000146359
0.000153609
0.000160119
0.000165991
0.000171305
0.000176148
0.000180576
0.000184626
0.000188363
0.00019181
0.000194986
0.00019792
0.000200651
0.000203179
0.000205515
0.000207674
0.00020967
0.000211522
0.000213223
0.000214777
0.000216189
0.000217463
0.000218598
0.000219591
0.000220436
0.000221128
0.000221665
0.000222016
0.000222181
0.000222142
0.000221886
0.000221376
0.000220595
0.000219467
0.00021799
0.000216007
0.000213603
0.000210412
0.000206805
0.000201851
0.000196801
0.00018922
0.000182912
0.000171445
0.000165714
0.000149048
0.000149263
0.000129553
9.86785e-07
9.65153e-07
9.43481e-07
9.35251e-07
9.81161e-07
8.11744e-07
4.2297e-06
1.81316e-05
3.58888e-05
5.41671e-05
6.49481e-05
7.57766e-05
8.7433e-05
9.92783e-05
0.00011074
0.000121445
0.000131251
0.000140146
0.000148171
0.000155401
0.000161931
0.000167844
0.000173222
0.000178132
0.000182623
0.000186753
0.000190563
0.000194078
0.000197327
0.000200348
0.000203154
0.000205757
0.000208171
0.000210407
0.000212491
0.000214424
0.000216203
0.000217834
0.000219317
0.000220655
0.000221844
0.000222879
0.000223755
0.000224476
0.000225018
0.000225371
0.000225516
0.000225437
0.000225094
0.000224467
0.000223478
0.000222125
0.000220244
0.000217926
0.000214785
0.00021122
0.00020625
0.00020121
0.000193541
0.000187276
0.000175682
0.000170171
0.000153449
0.000154082
0.000134519
9.86764e-07
9.64767e-07
9.46724e-07
9.25499e-07
9.5904e-07
7.91997e-07
1.84295e-06
9.38953e-06
2.46667e-05
4.27092e-05
5.92983e-05
6.94354e-05
7.9703e-05
9.06248e-05
0.000101737
0.000112585
0.000122853
0.000132381
0.000141103
0.00014904
0.000156253
0.00016281
0.000168779
0.000174227
0.000179213
0.000183788
0.000188002
0.00019189
0.000195484
0.000198817
0.000201915
0.000204794
0.00020747
0.000209955
0.000212271
0.000214428
0.000216429
0.000218278
0.000219976
0.000221526
0.000222925
0.000224171
0.000225256
0.000226181
0.000226932
0.000227493
0.000227843
0.000227962
0.000227809
0.000227363
0.00022654
0.000225341
0.000223595
0.000221398
0.000218346
0.000214865
0.000209926
0.000204946
0.000197251
0.000191087
0.000179452
0.00017421
0.000157551
0.000158572
0.000139348
9.86783e-07
9.64578e-07
9.46848e-07
9.30839e-07
9.15108e-07
1.00544e-06
9.29815e-08
2.00963e-06
1.40287e-05
3.05137e-05
4.82858e-05
6.34634e-05
7.31209e-05
8.2717e-05
9.28345e-05
0.000103263
0.000113534
0.000123353
0.000132546
0.000141063
0.000148901
0.00015609
0.000162668
0.000168691
0.000174215
0.000179286
0.000183953
0.000188261
0.000192242
0.000195927
0.000199349
0.000202532
0.000205494
0.000208249
0.000210816
0.000213211
0.000215443
0.000217517
0.000219438
0.000221207
0.000222826
0.000224292
0.000225599
0.000226742
0.000227711
0.000228492
0.00022906
0.000229395
0.000229451
0.000229206
0.000228576
0.000227561
0.000225981
0.000223942
0.000221019
0.000217665
0.00021281
0.000207944
0.000200292
0.000194291
0.000182709
0.000177782
0.000161316
0.000162689
0.000144028
9.8679e-07
9.64593e-07
9.4636e-07
9.33472e-07
9.11057e-07
9.53996e-07
8.11816e-07
1.77736e-07
5.60046e-06
1.86509e-05
3.53163e-05
5.25027e-05
6.68613e-05
7.60385e-05
8.48564e-05
9.43297e-05
0.00010403
0.000113625
0.000122908
0.000131733
0.000140015
0.000147721
0.000154847
0.000161426
0.000167491
0.00017308
0.000178237
0.000183002
0.000187409
0.00019149
0.000195279
0.000198803
0.000202084
0.00020514
0.000207989
0.000210649
0.000213135
0.000215454
0.000217613
0.000219616
0.000221466
0.000223164
0.000224703
0.000226079
0.000227279
0.000228292
0.000229091
0.000229656
0.00022994
0.000229921
0.000229509
0.000228707
0.000227328
0.000225482
0.000222733
0.000219552
0.000214836
0.000210141
0.000202606
0.000196831
0.000185403
0.000180835
0.000164702
0.000166388
0.000148527
9.86789e-07
9.64617e-07
9.46285e-07
9.32886e-07
9.18417e-07
9.12199e-07
9.41474e-07
6.8278e-07
4.49528e-07
8.63034e-06
2.22491e-05
3.87683e-05
5.53611e-05
6.95424e-05
7.82555e-05
8.65591e-05
9.51953e-05
0.000103991
0.00011288
0.000121602
0.000130004
0.000137979
0.000145481
0.000152501
0.000159035
0.000165105
0.000170741
0.000175969
0.000180817
0.00018532
0.000189508
0.000193407
0.00019704
0.00020043
0.000203596
0.000206556
0.000209326
0.000211917
0.000214339
0.0002166
0.000218703
0.000220651
0.000222441
0.000224066
0.000225515
0.000226778
0.000227828
0.000228644
0.00022918
0.000229413
0.00022925
0.000228693
0.000227552
0.000225942
0.000223412
0.000220455
0.000215939
0.000211473
0.000204136
0.000198651
0.000187487
0.000183319
0.000167664
0.000169627
0.000152774
9.86788e-07
9.64613e-07
9.46378e-07
9.32231e-07
9.20938e-07
9.09245e-07
9.08225e-07
9.33579e-07
4.41897e-07
1.12437e-06
1.05181e-05
2.45785e-05
4.08621e-05
5.68831e-05
7.15715e-05
7.9864e-05
8.76319e-05
9.53049e-05
0.00010335
0.000111478
0.00011956
0.000127431
0.000135014
0.000142243
0.000149068
0.000155495
0.000161522
0.00016715
0.000172407
0.000177319
0.000181906
0.000186188
0.000190189
0.000193933
0.000197441
0.000200729
0.000203811
0.000206703
0.000209416
0.000211962
0.000214345
0.00021657
0.000218634
0.000220534
0.000222258
0.000223797
0.000225126
0.000226224
0.000227043
0.000227561
0.000227683
0.000227414
0.000226556
0.000225228
0.000222973
0.000220296
0.000216047
0.000211877
0.000204824
0.000199696
0.000188907
0.00018518
0.000170151
0.000172361
0.000156689
9.86789e-07
9.64604e-07
9.46426e-07
9.32097e-07
9.20884e-07
9.11452e-07
9.00709e-07
9.11118e-07
9.04086e-07
2.14597e-07
2.15524e-06
1.18329e-05
2.57502e-05
4.15702e-05
5.70623e-05
7.11308e-05
8.06728e-05
8.80459e-05
9.50948e-05
0.000102265
0.000109571
0.000116903
0.000124185
0.000131272
0.000138105
0.000144661
0.000150886
0.000156768
0.000162328
0.00016757
0.000172494
0.000177117
0.000181463
0.000185552
0.0001894
0.000193018
0.000196423
0.000199631
0.000202656
0.000205509
0.000208197
0.000210722
0.000213087
0.000215288
0.000217318
0.000219166
0.000220808
0.000222224
0.000223366
0.000224213
0.000224668
0.000224735
0.000224215
0.000223229
0.000221314
0.000218984
0.00021508
0.000211279
0.000204606
0.000199905
0.000189612
0.000186365
0.000172111
0.000174544
0.000160202
9.86789e-07
9.646e-07
9.46432e-07
9.32114e-07
9.20744e-07
9.11599e-07
9.03413e-07
8.94331e-07
9.12226e-07
8.5171e-07
2.30907e-07
2.95876e-06
1.22816e-05
2.56269e-05
4.08615e-05
5.5733e-05
6.93269e-05
8.08481e-05
8.79058e-05
9.45089e-05
0.000100846
0.000107336
0.000113922
0.000120457
0.000126958
0.00013331
0.000139441
0.000145347
0.00015102
0.000156421
0.000161543
0.0001664
0.000171011
0.00017538
0.000179513
0.00018342
0.000187121
0.000190632
0.000193963
0.000197123
0.000200118
0.000202954
0.000205633
0.000208156
0.000210515
0.000212701
0.00021469
0.000216463
0.000217972
0.000219195
0.000220037
0.0002205
0.000220384
0.000219809
0.000218313
0.000216408
0.000212942
0.000209593
0.000203407
0.00019921
0.000189539
0.000186815
0.000173487
0.000176124
0.000163253
9.86789e-07
9.646e-07
9.46429e-07
9.32123e-07
9.20741e-07
9.11455e-07
9.03875e-07
8.96197e-07
8.9044e-07
9.0827e-07
7.82413e-07
7.50337e-07
3.17295e-06
1.16318e-05
2.41213e-05
3.85915e-05
5.28968e-05
6.61721e-05
7.82142e-05
8.70675e-05
9.33626e-05
9.93193e-05
0.000105029
0.000110746
0.00011661
0.000122361
0.000128071
0.000133724
0.000139226
0.000144526
0.000149631
0.00015455
0.000159272
0.000163779
0.000168074
0.000172174
0.000176095
0.000179846
0.00018343
0.000186851
0.000190119
0.000193241
0.000196222
0.000199062
0.000201754
0.000204287
0.00020664
0.000208794
0.000210703
0.000212345
0.000213626
0.000214545
0.000214904
0.000214818
0.000213827
0.00021244
0.000209515
0.000206716
0.000201138
0.000197534
0.000188621
0.000186467
0.000174213
0.000177048
0.00016577
9.86789e-07
9.646e-07
9.46428e-07
9.32123e-07
9.20747e-07
9.11454e-07
9.03674e-07
8.97292e-07
8.89521e-07
8.90767e-07
8.79708e-07
9.18846e-07
9.35309e-08
2.2255e-06
9.89724e-06
2.12237e-05
3.47586e-05
4.85627e-05
6.14942e-05
7.32834e-05
8.40715e-05
9.16538e-05
9.73132e-05
0.00010266
0.000107809
0.000112719
0.000117803
0.000122925
0.000127901
0.000132804
0.000137651
0.000142397
0.00014699
0.000151416
0.000155694
0.000159834
0.000163839
0.000167701
0.000171417
0.000174997
0.000178451
0.00018179
0.000185016
0.000188125
0.000191107