/*--------------------------------*- C++ -*----------------------------------*\
| =========                 |                                                 |
| \\      /  F ield         | OpenFOAM: The Open Source CFD Toolbox           |
|  \\    /   O peration     | Version:  v1906                                 |
|   \\  /    A nd           | Web:      www.OpenFOAM.com                      |
|    \\/     M anipulation  |                                                 |
\*---------------------------------------------------------------------------*/
FoamFile
{
    version     2.0;
    format      ascii;
    class       volScalarField;
    location    "0.3";
    object      omega;
}
// * * * * * * * * * * * * * * * * * * * * * * * * * * * * * * * * * * * * * //

dimensions      [0 0 -1 0 0 0 0];


internalField   nonuniform List<scalar> 
80000
(
112752
106189
104329
103229
102346
101702
101193
100791
100456
100180
99942.9
99740.7
99564.2
99410.1
99273.7
99152.7
99044.4
98947.2
98859.4
98779.8
98707.3
98641
98580.1
98523.7
98471.4
98422.3
98375.7
98331
98287.3
98243.8
98199.5
98153.3
98103.9
98049.9
97989.6
97921.2
97842.8
97752.1
97646.7
97523.9
97380.9
97214.4
97021.3
96797.9
96540.2
96244.5
95905.8
95520.1
95081
94585.1
94023
93393.8
92680.1
91891.5
90987.8
90012.5
88859.2
87676.7
86160.1
84685.9
82532.9
80956
78533.9
77892.6
79485.4
43972.4
44239.8
40090.8
38933
38460
38098.3
37799.1
37561.1
37366.8
37207
37072
36957.3
36858.1
36771.8
36696
36628.9
36569.1
36515.5
36467.3
36423.8
36384.2
36348.1
36315
36284.6
36256.5
36230.3
36205.7
36182.5
36160.2
36138.5
36117
36095.4
36073.1
36049.6
36024.3
35996.7
35965.9
35931.3
35891.9
35847
35795.5
35736.4
35668.6
35590.9
35502
35400.7
35285.2
35154.3
35005.9
34838.5
34649.1
34436.6
34196
33927.4
33621.1
33282.6
32888.2
32464
31955.6
31507.4
30824.3
30347.8
28429.7
26673.2
19945.6
24875.1
25347.7
22472.1
21363
20958.9
20713.3
20520.4
20366.2
20241.2
20138.3
20052.1
19978.9
19915.9
19861.1
19813.1
19770.7
19733.1
19699.4
19669.1
19641.7
19616.9
19594.3
19573.7
19554.7
19537.2
19521
19505.8
19491.6
19478.1
19465.1
19452.5
19440
19427.4
19414.4
19400.8
19386.4
19370.7
19353.4
19334.2
19312.7
19288.4
19260.9
19229.7
19194.4
19154.4
19109.3
19058.4
19001.2
18937
18865.3
18785.3
18696
18597.3
18487
18366.4
18230
18085.5
17915.1
17754.3
17541.1
17397.6
17104.3
16932.3
15213.7
12708.7
15844.6
17779.5
15601.8
14485.6
14061.1
13841.7
13684.3
13560.5
13461.1
13379.7
13312
13254.8
13205.8
13163.4
13126.4
13093.7
13064.8
13039
13015.8
12995
12976.1
12958.9
12943.3
12928.9
12915.7
12903.6
12892.3
12881.8
12871.9
12862.6
12853.7
12845.1
12836.7
12828.5
12820.1
12811.6
12802.8
12793.5
12783.6
12772.9
12761.3
12748.6
12734.6
12719.2
12702.2
12683.5
12663
12640.5
12615.9
12589.1
12560.2
12528.8
12495.7
12459.7
12423.6
12383.2
12348.4
12304.2
12288.2
12239.1
12290.2
12221.8
12544.7
11664.1
11848.9
10768.6
13705.1
12097.2
10983.3
10520.3
10298.4
10153.1
10042.6
9955.11
9884.07
9825.46
9776.15
9734.18
9697.98
9666.5
9638.86
9614.43
9592.69
9573.23
9555.74
9539.94
9525.61
9512.57
9500.65
9489.73
9479.7
9470.45
9461.88
9453.94
9446.53
9439.6
9433.09
9426.93
9421.07
9415.46
9410.05
9404.79
9399.64
9394.54
9389.47
9384.41
9379.32
9374.19
9369.04
9363.88
9358.75
9353.74
9348.92
9344.48
9340.53
9337.5
9335.41
9335.28
9336.75
9342.5
9350.49
9368.74
9388.84
9438.98
9481.71
9613.4
9691.72
10164
9888.63
11547
7581.83
11027.9
9997.29
8914.23
8413.36
8177.34
8033.45
7928.37
7846.76
7781.11
7727.37
7682.43
7644.39
7611.72
7583.42
7558.65
7536.83
7517.46
7500.17
7484.66
7470.67
7458.02
7446.52
7436.04
7426.47
7417.7
7409.64
7402.24
7395.42
7389.14
7383.35
7378.03
7373.14
7368.66
7364.59
7360.91
7357.63
7354.75
7352.3
7350.29
7348.78
7347.81
7347.46
7347.8
7348.96
7351.07
7354.32
7358.89
7365.09
7373.19
7383.7
7396.94
7413.92
7434.87
7462.07
7495.03
7539.84
7592.94
7674.3
7764.94
7932.95
8092.34
8606.02
8684.42
10993.8
5475.32
8999.24
8574.62
7570.69
7039.44
6783.89
6635.36
6531.3
6452.14
6389.18
6338.06
6295.58
6259.81
6229.22
6202.83
6179.8
6159.58
6141.67
6125.72
6111.44
6098.6
6086.99
6076.47
6066.9
6058.18
6050.21
6042.91
6036.24
6030.13
6024.55
6019.47
6014.87
6010.75
6007.1
6003.93
6001.26
5999.12
5997.54
5996.58
5996.3
5996.77
5998.09
6000.37
6003.73
6008.35
6014.4
6022.11
6031.75
6043.65
6058.19
6075.88
6097.23
6123.18
6154.31
6192.54
6238.39
6296.45
6366.3
6462.09
6576.56
6762.37
6963.1
7472.45
7748.57
10191.3
3786.92
7348.79
7503.63
6639.41
6087.14
5809.86
5652.86
5546.86
5467.97
5406.02
5356.11
5314.92
5280.4
5251.01
5225.75
5203.79
5184.54
5167.55
5152.45
5138.96
5126.84
5115.92
5106.03
5097.06
5088.88
5081.44
5074.64
5068.44
5062.79
5057.66
5053.03
5048.9
5045.25
5042.1
5039.47
5037.4
5035.92
5035.1
5034.98
5035.66
5037.24
5039.82
5043.53
5048.54
5055.01
5063.16
5073.25
5085.55
5100.44
5118.31
5139.7
5165.18
5195.63
5231.85
5275.45
5327.56
5391.7
5469.4
5571.15
5696.31
5888.96
6110.05
6594.08
6978.2
9288.18
2010.23
6030.73
6626.49
5954.57
5398
5098.98
4930.94
4820.83
4740.63
4678.49
4628.84
4588.13
4554.19
4525.42
4500.77
4479.41
4460.74
4444.3
4429.73
4416.73
4405.07
4394.59
4385.11
4376.51
4368.7
4361.6
4355.13
4349.24
4343.89
4339.05
4334.71
4330.86
4327.51
4324.67
4322.36
4320.64
4319.54
4319.13
4319.48
4320.68
4322.84
4326.07
4330.52
4336.36
4343.76
4352.95
4364.19
4377.77
4394.06
4413.48
4436.54
4463.86
4496.25
4534.61
4580.34
4634.9
4701.1
4781.56
4885.25
5013.86
5204.92
5436.88
5886.72
6326.34
8398.88
985.359
4944.19
5853.14
5416.88
4883.29
4564.05
4383.18
4267.23
4184.47
4121.21
4071.1
4030.28
3996.41
3967.83
3943.43
3922.34
3903.97
3887.83
3873.54
3860.83
3849.45
3839.23
3830
3821.65
3814.06
3807.18
3800.91
3795.22
3790.06
3785.41
3781.25
3777.58
3774.4
3771.74
3769.62
3768.08
3767.18
3766.97
3767.55
3768.99
3771.42
3774.94
3779.7
3785.88
3793.65
3803.23
3814.89
3828.91
3845.66
3865.56
3889.09
3916.88
3949.68
3988.45
4034.39
4089.16
4155.1
4235.49
4338.83
4467.77
4651.45
4887.69
5301.91
5764.74
7578.45
582.75
4031.89
5138.48
4965.71
4486.49
4152.54
3957.84
3834.57
3748.15
3683
3631.84
3590.44
3556.25
3527.53
3503.09
3482.04
3463.74
3447.7
3433.53
3420.95
3409.71
3399.62
3390.53
3382.31
3374.85
3368.09
3361.95
3356.37
3351.32
3346.78
3342.73
3339.15
3336.07
3333.5
3331.46
3330.01
3329.19
3329.07
3329.72
3331.23
3333.72
3337.3
3342.11
3348.32
3356.11
3365.69
3377.32
3391.28
3407.91
3427.63
3450.91
3478.34
3510.64
3548.76
3593.77
3647.41
3711.91
3790.85
3891.68
4019.22
4193.05
4427.18
4808.24
5274.29
6844.4
502.696
3265.83
4522.28
4565.25
4167.59
3831
3622.13
3490.23
3399.18
3331.43
3278.7
3236.31
3201.48
3172.34
3147.63
3126.41
3108.01
3091.91
3077.73
3065.16
3053.94
3043.88
3034.84
3026.67
3019.27
3012.56
3006.48
3000.95
2995.96
2991.47
2987.46
2983.93
2980.88
2978.34
2976.33
2974.89
2974.07
2973.94
2974.57
2976.04
2978.46
2981.96
2986.65
2992.71
3000.3
3009.64
3020.96
3034.54
3050.71
3069.86
3092.43
3119.01
3150.25
3187.08
3230.5
3282.29
3344.9
3421.64
3518.22
3642.4
3806.17
4033.41
4384.27
4841.38
6197.46
546.083
2618.18
3994.98
4193.03
3898.34
3574.99
3354.29
3212.67
3116.01
3044.99
2990.21
2946.46
2910.69
2880.9
2855.72
2834.15
2815.5
2799.23
2784.91
2772.24
2760.96
2750.86
2741.79
2733.6
2726.19
2719.48
2713.4
2707.88
2702.89
2698.41
2694.4
2690.87
2687.82
2685.26
2683.23
2681.76
2680.89
2680.69
2681.23
2682.59
2684.87
2688.18
2692.65
2698.44
2705.7
2714.65
2725.49
2738.5
2753.99
2772.33
2793.93
2819.36
2849.22
2884.4
2925.9
2975.59
3035.86
3109.78
3201.35
3320.53
3474.55
3691.94
4015.12
4455.82
5631
622.136
2073.3
3509.46
3833.83
3658.69
3365.24
3138.49
2987.1
2883.92
2808.95
2751.62
2706.15
2669.17
2638.5
2612.66
2590.59
2571.57
2554.99
2540.45
2527.6
2516.17
2505.95
2496.79
2488.52
2481.06
2474.3
2468.17
2462.62
2457.6
2453.08
2449.05
2445.48
2442.39
2439.79
2437.7
2436.16
2435.21
2434.9
2435.31
2436.5
2438.59
2441.66
2445.85
2451.29
2458.15
2466.61
2476.87
2489.21
2503.89
2521.28
2541.77
2565.88
2594.17
2627.54
2667.07
2714.57
2771.92
2842.49
2928.98
3042.16
3186.73
3392.66
3690.26
4109.81
5135.25
700.292
1578.79
3039.91
3492.21
3434.8
3186.72
2962.04
2802.7
2692.52
2612.87
2552.5
2504.94
2466.48
2434.7
2408.03
2385.32
2365.79
2348.81
2333.95
2320.83
2309.19
2298.8
2289.48
2281.09
2273.52
2266.67
2260.47
2254.84
2249.76
2245.18
2241.09
2237.46
2234.3
2231.63
2229.46
2227.82
2226.76
2226.31
2226.56
2227.57
2229.42
2232.22
2236.08
2241.14
2247.54
2255.46
2265.1
2276.7
2290.51
2306.89
2326.18
2348.89
2375.56
2407.08
2444.68
2489.82
2543.97
2610.82
2692.29
2799.06
2934.44
3128.15
3402.07
3797.38
4699.77
771.999
1044.86
2564.89
3177.46
3217.4
3027.24
2814.47
2650.66
2534
2449.27
2385.3
2335.26
2295.02
2261.93
2234.24
2210.75
2190.59
2173.11
2157.83
2144.38
2132.45
2121.83
2112.31
2103.75
2096.03
2089.06
2082.73
2077.01
2071.83
2067.17
2062.98
2059.27
2056.03
2053.26
2050.99
2049.24
2048.04
2047.44
2047.51
2048.3
2049.91
2052.42
2055.93
2060.58
2066.51
2073.87
2082.85
2093.68
2106.6
2121.92
2140
2161.29
2186.36
2216.18
2251.71
2294.34
2345.26
2408.22
2484.78
2585.04
2711.54
2892.82
3144.85
3513.94
4314.89
828.165
626.746
2088.72
2869.59
2998.3
2877.05
2687.03
2523.55
2401.9
2312.27
2244.46
2191.51
2149.2
2114.55
2085.66
2061.23
2040.32
2022.24
2006.46
1992.6
1980.32
1969.41
1959.64
1950.86
1942.96
1935.81
1929.35
1923.49
1918.19
1913.41
1909.12
1905.31
1901.96
1899.08
1896.69
1894.81
1893.46
1892.7
1892.57
1893.14
1894.48
1896.69
1899.85
1904.08
1909.51
1916.31
1924.63
1934.68
1946.71
1960.99
1977.85
1997.77
2021.37
2049.5
2082.87
2122.93
2170.7
2229.76
2301.52
2395.36
2513.35
2682.3
2914.16
3255.99
3972.32
859.028
485.019
1645.69
2552.89
2779.77
2729.11
2571.94
2415.09
2290.77
2196.96
2125.46
2069.49
2024.8
1988.32
1958.03
1932.51
1910.72
1891.92
1875.56
1861.2
1848.52
1837.25
1827.18
1818.15
1810.01
1802.67
1796.02
1790.01
1784.57
1779.65
1775.23
1771.29
1767.82
1764.82
1762.29
1760.26
1758.76
1757.82
1757.49
1757.83
1758.9
1760.79
1763.59
1767.41
1772.36
1778.58
1786.25
1795.54
1806.68
1819.95
1835.65
1854.3
1876.49
1902.88
1934.11
1971.62
2016.35
2071.59
2138.7
2226.31
2336.2
2493.14
2706.47
3020.77
3665.28
867.737
505.453
1241.39
2219.94
2564.07
2578.53
2462.35
2319.54
2195.96
2099.18
2024.39
1965.59
1918.47
1880
1848.09
1821.3
1798.49
1778.87
1761.83
1746.9
1733.74
1722.06
1711.64
1702.3
1693.9
1686.32
1679.47
1673.26
1667.65
1662.58
1658.01
1653.93
1650.31
1647.17
1644.5
1642.31
1640.64
1639.51
1638.97
1639.07
1639.88
1641.46
1643.9
1647.3
1651.77
1657.44
1664.47
1673.02
1683.31
1695.59
1710.22
1727.69
1748.45
1773.11
1802.28
1837.32
1879.1
1930.68
1993.33
2074.96
2177.18
2322.55
2518.89
2806.09
3388.41
864.014
576.197
828.403
1857.07
2341.55
2420.31
2352.69
2231.52
2113.21
2015.36
1938
1876.67
1827.28
1786.87
1753.29
1725.08
1701.09
1680.52
1662.69
1647.11
1633.4
1621.25
1610.42
1600.73
1592.02
1584.17
1577.08
1570.66
1564.85
1559.59
1554.86
1550.61
1546.84
1543.54
1540.71
1538.36
1536.51
1535.18
1534.43
1534.29
1534.83
1536.1
1538.19
1541.18
1545.18
1550.32
1556.72
1564.56
1574.04
1585.41
1599.07
1615.37
1634.71
1657.69
1684.88
1717.54
1756.52
1804.6
1862.99
1938.91
2033.91
2168.25
2349.01
2610.08
3137.53
856.877
636.302
493.672
1470.77
2102.52
2259.52
2239.11
2145.97
2038.34
1942.24
1863.51
1800.13
1748.72
1706.5
1671.34
1641.72
1616.51
1594.89
1576.15
1559.82
1545.48
1532.78
1521.49
1511.4
1502.34
1494.18
1486.81
1480.15
1474.11
1468.65
1463.72
1459.3
1455.36
1451.88
1448.88
1446.35
1444.31
1442.79
1441.82
1441.44
1441.7
1442.67
1444.41
1447.01
1450.55
1455.17
1460.98
1468.15
1476.86
1487.43
1500.13
1515.28
1533.24
1554.6
1579.9
1610.3
1646.6
1691.35
1745.72
1816.22
1904.43
2028.33
2194.8
2431.12
2909.43
851.683
664.435
408.792
1104.72
1836.05
2094
2117.75
2058.6
1967.24
1876.56
1798.32
1733.71
1680.67
1636.82
1600.2
1569.28
1542.91
1520.24
1500.57
1483.42
1468.36
1455.04
1443.22
1432.68
1423.21
1414.7
1407.02
1400.08
1393.79
1388.1
1382.96
1378.34
1374.2
1370.54
1367.35
1364.63
1362.4
1360.67
1359.48
1358.86
1358.85
1359.51
1360.91
1363.13
1366.24
1370.36
1375.61
1382.14
1390.19
1399.98
1411.73
1425.75
1442.39
1462.21
1485.71
1513.96
1547.72
1589.32
1639.89
1705.27
1787.12
1901.19
2054.51
2267.77
2701.55
849.757
666.89
455.061
735.276
1528.17
1913.17
1991.3
1966.27
1895.92
1814.99
1739.82
1675.29
1621.25
1576.11
1538.2
1506.08
1478.64
1454.99
1434.45
1416.49
1400.7
1386.72
1374.33
1363.26
1353.33
1344.43
1336.4
1329.14
1322.56
1316.61
1311.24
1306.39
1302.05
1298.18
1294.79
1291.87
1289.44
1287.5
1286.08
1285.21
1284.93
1285.3
1286.37
1288.21
1290.91
1294.56
1299.29
1305.26
1312.66
1321.67
1332.49
1345.44
1360.83
1379.17
1400.97
1427.18
1458.54
1497.16
1544.15
1604.72
1680.61
1785.47
1926.68
2118.7
2511.8
849.958
659.256
514.134
414.72
1180.24
1706.16
1860.09
1865.99
1820.94
1754.23
1685.31
1622.71
1568.66
1522.76
1483.85
1450.71
1422.31
1397.76
1376.41
1357.7
1341.22
1326.63
1313.64
1302.04
1291.64
1282.29
1273.87
1266.25
1259.35
1253.11
1247.47
1242.38
1237.81
1233.72
1230.11
1226.98
1224.33
1222.17
1220.52
1219.41
1218.87
1218.94
1219.69
1221.17
1223.47
1226.69
1230.95
1236.39
1243.14
1251.38
1261.31
1273.22
1287.42
1304.37
1324.55
1348.83
1377.93
1413.74
1457.36
1513.41
1583.72
1680
1810.01
1982.67
2338.42
850.689
653.106
538.948
356.54
827.039
1454.88
1715.07
1760.33
1739.87
1691.24
1631.97
1573.66
1521.05
1475.22
1435.79
1401.91
1372.71
1347.38
1325.28
1305.89
1288.77
1273.6
1260.07
1247.97
1237.12
1227.33
1218.51
1210.52
1203.28
1196.73
1190.8
1185.43
1180.6
1176.26
1172.43
1169.07
1166.2
1163.81
1161.92
1160.56
1159.75
1159.54
1159.98
1161.13
1163.07
1165.88
1169.67
1174.55
1180.66
1188.16
1197.24
1208.17
1221.23
1236.87
1255.51
1277.98
1304.94
1338.11
1378.56
1430.37
1495.48
1583.78
1703.41
1858.57
2179.96
851.104
651.396
537.419
410.606
480.036
1146.32
1543.2
1650.66
1653.02
1623.54
1577.01
1525.7
1476.41
1431.84
1392.64
1358.47
1328.75
1302.81
1280.08
1260.08
1242.38
1226.67
1212.64
1200.08
1188.8
1178.61
1169.41
1161.07
1153.51
1146.64
1140.41
1134.77
1129.68
1125.09
1121.01
1117.41
1114.3
1111.68
1109.55
1107.94
1106.87
1106.38
1106.52
1107.34
1108.91
1111.31
1114.63
1118.96
1124.44
1131.23
1139.49
1149.49
1161.47
1175.86
1193.07
1213.82
1238.77
1269.45
1306.94
1354.78
1415.02
1495.92
1605.92
1745.34
2035.16
851.159
652.002
530.306
449.455
324.256
807.116
1324.57
1527.71
1563.05
1549.53
1517.92
1476.36
1432.6
1390.87
1352.92
1319.14
1289.32
1263.05
1239.88
1219.38
1201.2
1185.01
1170.54
1157.55
1145.86
1135.31
1125.76
1117.09
1109.23
1102.07
1095.56
1089.66
1084.31
1079.48
1075.16
1071.33
1067.98
1065.11
1062.74
1060.88
1059.55
1058.78
1058.62
1059.1
1060.3
1062.29
1065.13
1068.93
1073.81
1079.91
1087.4
1096.5
1107.47
1120.68
1136.52
1155.66
1178.72
1207.07
1241.77
1285.91
1341.6
1415.67
1516.7
1642.02
1902.89
851.091
652.696
527.249
454.821
349.568
473.452
1042.01
1374.31
1467.59
1471.66
1453.18
1423.41
1387.46
1350.39
1315.02
1282.55
1253.26
1227.07
1203.74
1182.96
1164.43
1147.86
1133.01
1119.65
1107.61
1096.72
1086.85
1077.88
1069.73
1062.3
1055.54
1049.38
1043.8
1038.74
1034.19
1030.13
1026.55
1023.46
1020.85
1018.74
1017.14
1016.1
1015.63
1015.79
1016.62
1018.19
1020.58
1023.87
1028.17
1033.62
1040.37
1048.63
1058.64
1070.74
1085.29
1102.92
1124.2
1150.36
1182.45
1223.13
1274.57
1342.32
1435.03
1547.71
1782.13
851.048
652.87
527.474
448.778
389.081
298.527
707.718
1165.42
1355.15
1392.42
1384.72
1365.52
1339.04
1308.48
1277.24
1247.21
1219.27
1193.76
1170.69
1149.93
1131.27
1114.49
1099.37
1085.73
1073.4
1062.22
1052.07
1042.83
1034.42
1026.74
1019.74
1013.36
1007.55
1002.28
997.514
993.24
989.447
986.129
983.29
980.94
979.095
977.778
977.019
976.855
977.334
978.512
980.46
983.26
987.013
991.842
997.895
1005.36
1014.47
1025.52
1038.87
1055.07
1074.68
1098.8
1128.44
1165.9
1213.37
1275.3
1360.25
1461.64
1671.92
851.043
652.802
528.124
445.749
395.51
318.595
392.086
884.136
1204.38
1304.92
1315.82
1304.05
1286.17
1263.41
1237.81
1211.51
1185.93
1161.87
1139.65
1119.34
1100.87
1084.11
1068.91
1055.12
1042.6
1031.22
1020.85
1011.39
1002.75
994.861
987.647
981.056
975.042
969.571
964.611
960.141
956.147
952.622
949.569
946.993
944.908
943.333
942.295
941.827
941.97
942.777
944.312
946.651
949.888
954.136
959.532
966.253
974.507
984.58
996.798
1011.66
1029.72
1051.92
1079.27
1113.73
1157.5
1214.07
1291.81
1383.07
1571.4
851.048
652.748
528.281
445.905
390.644
349.438
272.492
549.824
982.147
1190.22
1242.81
1242.52
1230.07
1214.21
1195.19
1173.83
1151.72
1130.04
1109.4
1090.11
1072.27
1055.87
1040.85
1027.11
1014.56
1003.09
992.597
982.994
974.2
966.144
958.761
951.997
945.81
940.163
935.028
930.38
926.205
922.493
919.243
916.459
914.152
912.337
911.038
910.286
910.117
910.578
911.728
913.637
916.391
920.096
924.879
930.902
938.361
947.516
958.678
972.295
988.892
1009.31
1034.52
1066.19
1106.5
1158.14
1229.18
1311.36
1479.76
851.05
652.739
528.224
446.357
388.866
350.686
305.394
281.825
661.882
1013.16
1151.29
1179.39
1174.28
1162.26
1148.62
1132.83
1115.21
1096.89
1078.66
1061.08
1044.41
1028.81
1014.32
1000.91
988.554
977.178
966.709
957.078
948.221
940.076
932.587
925.705
919.39
913.607
908.329
903.533
899.202
895.327
891.905
888.937
886.43
884.4
882.865
881.853
881.398
881.541
882.337
883.85
886.158
889.36
893.574
898.95
905.67
913.972
924.149
936.605
951.842
970.595
993.82
1022.89
1059.99
1107.08
1171.92
1245.93
1396.28
851.049
652.741
528.187
446.418
389.161
347.395
319.172
264.318
349.927
742.803
1012
1103.48
1118.13
1111.08
1099.88
1088.26
1075.4
1061.16
1046.13
1030.98
1016.13
1001.86
988.343
975.639
963.773
952.734
942.488
932.997
924.215
916.094
908.594
901.674
895.3
889.44
884.069
879.169
874.723
870.722
867.161
864.04
861.365
859.149
857.409
856.169
855.459
855.318
855.794
856.948
858.851
861.593
865.286
870.066
876.103
883.616
892.882
904.261
918.236
935.443
956.815
983.478
1017.58
1060.51
1119.59
1186.26
1320.3
851.048
652.74
528.182
446.376
389.358
347.058
316.349
290.161
241.655
415.174
778.995
987.865
1052.06
1060.1
1052.52
1042.59
1032.64
1022.2
1010.78
998.679
986.262
973.919
961.871
950.301
939.297
928.906
919.148
910.019
901.498
893.56
886.183
879.341
873.006
867.154
861.766
856.827
852.325
848.249
844.597
841.368
838.569
836.208
834.303
832.873
831.949
831.564
831.763
832.6
834.143
836.474
839.696
843.935
849.351
856.142
864.569
874.956
887.763
903.54
923.192
947.632
978.95
1018.05
1071.81
1131.87
1251.21
851.047
652.737
528.18
446.362
389.338
347.338
315.031
291.237
266.253
228.875
441.596
773.881
949.148
1000.21
1005.59
998.732
989.905
981.134
972.499
963.501
953.877
943.928
933.837
923.868
914.138
904.758
895.809
887.317
879.292
871.742
864.669
858.059
851.897
846.17
840.869
835.985
831.509
827.434
823.758
820.484
817.618
815.169
813.153
811.587
810.5
809.922
809.894
810.468
811.705
813.681
816.491
820.251
825.111
831.251
838.917
848.397
860.132
874.594
892.657
915.045
943.781
979.378
1028.23
1082.32
1188.45
851.046
652.733
528.175
446.359
389.312
347.383
315.144
289.708
270.688
245.787
225.907
441.591
744.13
902.803
949.435
954.782
949.162
941.198
933.443
926.063
918.781
911.279
903.408
895.409
887.321
879.329
871.539
863.989
856.734
849.823
843.275
837.089
831.269
825.821
820.746
816.041
811.701
807.726
804.12
800.886
798.035
795.574
793.518
791.887
790.703
789.999
789.812
790.189
791.187
792.876
795.344
798.697
803.076
808.644
815.633
824.298
835.062
848.323
864.925
885.432
911.779
944.173
988.513
1037.21
1131.48
851.045
652.73
528.17
446.354
389.305
347.363
315.213
289.665
269.231
253.113
230.663
222.354
420.165
698.462
852.406
900.133
907.293
903.142
896.273
889.243
882.701
876.53
870.506
864.454
858.151
851.809
845.46
839.131
832.935
826.938
821.157
815.613
810.339
805.358
800.679
796.304
792.239
788.492
785.075
781.995
779.263
776.89
774.89
773.282
772.093
771.35
771.09
771.355
772.199
773.686
775.899
778.934
782.921
788.009
794.417
802.37
812.268
824.451
839.724
858.514
882.663
912.138
952.333
996.169
1079.84
851.044
652.726
528.165
446.348
389.3
347.354
315.201
289.744
269.016
252.23
238.196
219.561
212.559
374.721
633.064
795.085
851.157
862.295
860.153
854.578
848.319
842.341
836.861
831.711
826.78
821.95
817.059
812.083
807.156
802.29
797.489
792.801
788.291
783.983
779.886
776.012
772.382
769.019
765.937
763.149
760.666
758.501
756.674
755.207
754.124
753.454
753.231
753.493
754.292
755.686
757.752
760.578
764.286
769.007
774.947
782.306
791.461
802.697
816.78
834.024
856.163
882.989
919.393
958.849
1033.08
851.043
652.723
528.16
446.342
389.294
347.349
315.191
289.741
269.078
251.95
237.846
225.606
210.764
198.753
311.377
543.021
723.434
799.213
818.4
819.462
815.527
810.291
804.918
799.799
795.199
790.863
786.824
782.955
779.2
775.457
771.705
768.009
764.432
760.961
757.604
754.392
751.366
748.554
745.968
743.621
741.528
739.712
738.198
737.01
736.172
735.711
735.658
736.052
736.94
738.377
740.434
743.189
746.754
751.248
756.862
763.77
772.326
782.767
795.815
811.692
832.015
856.455
889.412
924.932
990.714
851.042
652.719
528.155
446.337
389.288
347.343
315.185
289.731
269.08
251.98
237.607
225.513
215.069
202.778
189.06
246.781
431.314
626.604
735.974
772.693
779.803
778.399
774.542
770
765.469
761.077
757.092
753.502
750.122
746.991
744.041
741.226
738.536
735.892
733.32
730.862
728.563
726.43
724.465
722.685
721.117
719.794
718.742
717.983
717.539
717.435
717.705
718.388
719.526
721.171
723.385
726.238
729.834
734.275
739.737
746.371
754.505
764.332
776.528
791.238
809.955
832.274
862.118
894.118
952.371
851.041
652.715
528.149
446.33
389.282
347.337
315.179
289.725
269.072
251.984
237.611
225.373
214.905
205.949
195.714
184.235
198.289
313.963
496.993
644.501
716.326
738.306
741.843
740.244
736.999
733.236
729.398
725.751
722.284
719.148
716.351
713.789
711.412
709.255
707.283
705.477
703.844
702.36
701.014
699.84
698.869
698.138
697.659
697.446
697.519
697.91
698.655
699.79
701.353
703.387
705.948
709.099
712.93
717.53
723.057
729.636
737.568
747.006
758.572
772.349
789.701
810.179
837.252
866.124
917.714
851.04
652.712
528.144
446.324
389.276
347.33
315.173
289.719
269.065
251.977
237.611
225.372
214.824
205.718
197.826
189.691
180.506
175.547
220.323
348.841
507.828
626.15
683.928
702.475
705.748
704.811
702.423
699.44
696.339
693.287
690.417
687.756
685.289
683.129
681.251
679.607
678.158
676.957
676.002
675.287
674.818
674.614
674.67
674.99
675.605
676.554
677.87
679.579
681.708
684.295
687.391
691.048
695.341
700.343
706.188
712.979
720.98
730.308
741.522
754.655
770.929
789.881
814.545
840.677
886.424
851.039
652.708
528.138
446.318
389.269
347.324
315.167
289.713
269.06
251.971
237.605
225.368
214.828
205.655
197.663
190.624
184.115
176.634
169.39
172.92
226.078
341.755
477.863
584.19
642.76
665.522
671.215
671.4
670.113
668.121
665.761
663.36
661.054
658.882
656.903
655.14
653.579
652.289
651.31
650.629
650.235
650.128
650.374
650.982
651.965
653.346
655.153
657.397
660.095
663.294
667.032
671.351
676.304
681.944
688.378
695.68
704.069
713.625
724.833
737.677
753.233
771.032
793.697
817.498
858.13
851.038
652.704
528.132
446.311
389.262
347.317
315.16
289.706
269.053
251.965
237.599
225.362
214.823
205.657
197.62
190.538
184.281
178.638
172.976
166.579
161.299
166.775
209.576
300.548
415.288
517.853
586.858
622.271
635.799
639.185
639.202
638.325
637.066
635.504
633.818
632.203
630.749
629.457
628.372
627.534
626.971
626.688
626.759
627.238
628.144
629.488
631.334
633.737
636.722
640.329
644.59
649.537
655.196
661.601
668.827
676.913
686.021
696.183
707.793
720.785
736.07
753.175
774.328
796.266
832.516
851.037
652.7
528.126
446.305
389.255
347.31
315.153
289.699
269.047
251.959
237.593
225.357
214.817
205.653
197.617
190.522
184.219
178.611
173.581
168.921
164.119
158.843
154.497
156.609
180.575
239.805
327.451
421.995
502.312
557.747
589.048
603.289
608.241
609.294
609.12
608.633
608.021
607.282
606.491
605.775
605.247
604.965
604.933
605.212
605.858
606.907
608.424
610.503
613.221
616.634
620.865
625.975
632.006
638.981
646.963
655.934
665.981
677.082
689.515
703.15
718.7
735.676
755.912
776.549
809.214
851.035
652.695
528.12
446.298
389.248
347.303
315.146
289.693
269.04
251.952
237.587
225.351
214.811
205.647
197.613
190.518
184.213
178.58
173.527
168.986
164.865
161.001
157.068
152.81
148.808
147.332
154.677
181.467
233.221
304.045
380.959
450.872
505.448
542.458
564.289
575.399
580.214
581.977
582.572
582.86
583.131
583.456
583.835
584.315
584.992
585.967
587.298
589.06
591.357
594.273
597.946
602.51
608.127
614.949
623.092
632.554
643.383
655.51
669.045
683.767
700.152
717.658
737.697
757.728
787.736
851.034
652.691
528.114
446.291
389.241
347.296
315.14
289.686
269.034
251.946
237.581
225.345
214.805
205.641
197.607
190.512
184.208
178.575
173.516
168.953
164.826
161.086
157.668
154.472
151.316
147.989
144.526
141.574
140.89
146.366
164.06
198.365
248.188
307.617
368.872
424.903
471.097
505.706
529.365
544.164
552.689
557.341
559.944
561.678
563.188
564.784
566.573
568.6
570.942
573.702
576.971
580.922
585.761
591.727
599.043
607.998
618.765
631.34
645.742
661.679
679.315
697.99
718.638
738.894
767.376
851.033
652.687
528.108
446.284
389.234
347.289
315.133
289.679
269.027
251.939
237.574
225.338
214.799
205.635
197.601
190.507
184.203
178.57
173.511
168.947
164.814
161.057
157.636
154.512
151.648
148.988
146.445
143.893
141.212
138.43
135.873
134.375
135.62
142.508
158.489
186.021
224.26
270.502
320.68
370.323
415.644
454.102
484.569
507.187
523.019
533.625
540.655
545.557
549.424
552.993
556.674
560.719
565.311
570.643
576.992
584.743
594.298
606.025
620.19
636.643
655.333
675.475
697.43
718.784
747.101
851.032
652.682
528.101
446.276
389.226
347.281
315.125
289.672
269.02
251.933
237.568
225.332
214.793
205.629
197.595
190.501
184.197
178.564
173.505
168.942
164.809
161.051
157.625
154.49
151.617
148.979
146.551
144.305
142.203
140.188
138.181
136.091
133.866
131.566
129.459
128.104
128.703
132.998
143.191
161.543
188.861
224.544
266.645
312.356
358.462
401.872
440.087
471.604
496.066
514.131
527.097
536.525
543.889
550.37
556.849
563.929
572.206
582.285
594.805
610.156
628.596
649.528
672.855
695.888
725.486
851.03
652.677
528.095
446.269
389.219
347.274
315.118
289.665
269.013
251.926
237.562
225.326
214.787
205.623
197.589
190.495
184.192
178.559
173.5
168.937
164.804
161.046
157.62
154.485
151.609
148.965
146.528
144.278
142.199
140.274
138.486
136.811
135.216
133.652
132.051
130.327
128.409
126.308
124.177
122.403
121.816
123.75
130.043
142.883
164.037
194.275
232.983
278.368
327.208
375.74
420.41
458.573
488.962
511.822
528.538
541.054
551.396
561.265
572.19
585.325
601.68
621.437
644.823
669.054
700.892
851.029
652.673
528.088
446.261
389.211
347.266
315.11
289.658
269.006
251.919
237.555
225.319
214.781
205.617
197.583
190.489
184.186
178.553
173.494
168.931
164.798
161.041
157.614
154.48
151.604
148.959
146.522
144.269
142.185
140.253
138.459
136.792
135.242
133.798
132.448
131.174
129.944
128.71
127.395
125.899
124.105
121.956
119.562
117.294
115.969
116.99
122.407
134.788
156.577
189.249
232.424
283.836
339.223
393.406
441.634
480.997
510.85
532.623
549.035
563.074
577.665
594.69
615.827
639.026
672.313
851.028
652.668
528.081
446.254
389.203
347.258
315.102
289.65
268.999
251.912
237.548
225.313
214.774
205.611
197.577
190.483
184.18
178.547
173.489
168.925
164.793
161.036
157.609
154.475
151.599
148.955
146.517
144.265
142.18
140.247
138.451
136.78
135.224
133.772
132.417
131.153
129.973
128.872
127.84
126.861
125.898
124.887
123.72
122.254
120.323
117.834
114.933
112.205
110.926
113.266
122.297
141.507
173.688
219.513
276.622
339.557
401.061
454.865
497.362
528.602
551.527
570.232
589.414
609.507
641.178
851.027
652.663
528.074
446.246
389.195
347.25
315.095
289.642
268.991
251.905
237.541
225.306
214.768
205.604
197.571
190.477
184.174
178.541
173.483
168.92
164.787
161.03
157.604
154.469
151.594
148.949
146.512
144.26
142.175
140.242
138.446
136.775
135.218
133.765
132.408
131.138
129.949
128.835
127.793
126.82
125.915
125.076
124.293
123.543
122.764
121.841
120.588
118.772
116.182
112.832
109.316
107.156
109.139
119.43
142.697
182.519
238.709
306.662
377.481
442.045
494.024
532.276
560.613
582.172
611.167
851.025
652.658
528.067
446.238
389.186
347.242
315.086
289.634
268.984
251.897
237.534
225.299
214.761
205.598
197.564
190.471
184.168
178.535
173.477
168.914
164.781
161.024
157.598
154.464
151.588
148.944
146.506
144.254
142.17
140.237
138.441
136.771
135.214
133.761
132.403
131.133
129.943
128.828
127.781
126.799
125.877
125.013
124.209
123.467
122.792
122.182
121.617
121.03
120.272
119.08
117.113
114.07
110.014
105.956
104.421
109.908
128.364
165.471
222.665
295.708
373.714
445.157
502.575
543.085
579.946
851.024
652.653
528.06
446.229
389.178
347.233
315.078
289.626
268.976
251.89
237.527
225.292
214.754
205.591
197.558
190.465
184.162
178.529
173.471
168.908
164.775
161.019
157.592
154.458
151.583
148.938
146.501
144.249
142.165
140.232
138.436
136.765
135.208
133.756
132.398
131.128
129.939
128.824
127.777
126.794
125.871
125.003
124.188
123.424
122.711
122.055
121.464
120.952
120.523
120.15
119.726
119.006
117.573
114.927
110.81
105.868
102.647
106.28
123.96
162.875
224.828
304.065
387.506
460.116
526.983
851.022
652.648
528.052
446.221
389.169
347.225
315.07
289.618
268.968
251.882
237.519
225.284
214.747
205.584
197.551
190.458
184.155
178.523
173.465
168.902
164.77
161.013
157.587
154.452
151.577
148.933
146.496
144.244
142.159
140.226
138.431
136.76
135.203
133.751
132.393
131.123
129.934
128.819
127.772
126.79
125.867
124.999
124.184
123.419
122.702
122.031
121.407
120.837
120.331
119.911
119.599
119.399
119.237
118.872
117.826
115.411
111.153
105.63
101.832
106.041
126.919
172.097
242.371
324.697
426.063
851.021
652.643
528.045
446.213
389.161
347.216
315.062
289.61
268.961
251.875
237.512
225.277
214.74
205.577
197.545
190.451
184.149
178.517
173.459
168.896
164.764
161.007
157.581
154.447
151.572
148.927
146.49
144.238
142.154
140.221
138.426
136.755
135.198
133.746
132.388
131.118
129.929
128.814
127.768
126.785
125.862
124.995
124.181
123.416
122.699
122.029
121.405
120.826
120.295
119.818
119.408
119.095
118.917
118.9
118.991
118.922
118.103
115.639