/*--------------------------------*- C++ -*----------------------------------*\
| =========                 |                                                 |
| \\      /  F ield         | OpenFOAM: The Open Source CFD Toolbox           |
|  \\    /   O peration     | Version:  v1906                                 |
|   \\  /    A nd           | Web:      www.OpenFOAM.com                      |
|    \\/     M anipulation  |                                                 |
\*---------------------------------------------------------------------------*/
FoamFile
{
    version     2.0;
    format      ascii;
    class       volScalarField;
    location    "0.3";
    object      p;
}
// * * * * * * * * * * * * * * * * * * * * * * * * * * * * * * * * * * * * * //

dimensions      [1 -1 -2 0 0 0 0];


internalField   nonuniform List<scalar> 
80000
(
73127
72619.1
72676.2
72457.9
72415.2
72268.7
72203.9
72096
72026
71940.2
71872.3
71800.1
71737.1
71674.4
71617
71561.5
71509.6
71460
71413.3
71368.8
71326.7
71286.8
71249.1
71213.5
71180
71148.7
71119.7
71093.2
71069.4
71048.6
71031.4
71018.2
71009.7
71006.8
71010.3
71021.4
71041.3
71071.3
71112.8
71167.6
71237.2
71323.6
71428.4
71553.9
71701.7
71874.3
72073
72300.8
72558.2
72849.6
73172.3
73535.5
73928
74372.3
74833.4
75373.3
75887.6
76554.3
77068.5
77943.1
78292.5
79595.9
79281.1
81606.7
79101.7
73126.9
72618.9
72675.7
72457.3
72414.6
72268.1
72203.2
72095.4
72025.4
71939.5
71871.7
71799.5
71736.5
71673.7
71616.4
71560.9
71509
71459.4
71412.6
71368.1
71326.1
71286.2
71248.4
71212.8
71179.3
71148.1
71119.1
71092.5
71068.7
71048
71030.7
71017.5
71009.1
71006.2
71009.7
71020.8
71040.7
71070.7
71112.2
71167
71236.6
71323
71427.8
71553.3
71701.1
71873.7
72072.5
72300.3
72557.7
72849.1
73171.9
73535.1
73927.7
74372.1
74833.2
75373.1
75887.6
76554.3
77068.6
77943.3
78292.7
79596.5
79281.8
81608.1
79096.5
73125.8
72618.7
72675.1
72456.7
72414
72267.5
72202.6
72094.8
72024.8
71938.9
71871
71798.8
71735.8
71673.1
71615.7
71560.2
71508.3
71458.7
71412
71367.5
71325.4
71285.5
71247.8
71212.2
71178.7
71147.4
71118.4
71091.9
71068.1
71047.3
71030.1
71016.9
71008.4
71005.5
71009
71020.2
71040
71070
71111.6
71166.4
71236
71322.4
71427.2
71552.7
71700.6
71873.2
72072
72299.8
72557.3
72848.7
73171.5
73534.8
73927.4
74371.8
74833.1
75373.1
75887.6
76554.5
77068.8
77943.8
78293.3
79597.6
79283.1
81609.6
79098.7
73124.6
72618.5
72674.6
72456
72413.3
72266.8
72201.9
72094.1
72024.1
71938.2
71870.3
71798.1
71735.1
71672.4
71615
71559.5
71507.6
71458.1
71411.3
71366.8
71324.7
71284.8
71247.1
71211.5
71178
71146.7
71117.7
71091.2
71067.4
71046.6
71029.4
71016.2
71007.7
71004.8
71008.4
71019.5
71039.4
71069.3
71110.9
71165.7
71235.3
71321.7
71426.6
71552.1
71700
71872.6
72071.4
72299.3
72556.8
72848.2
73171.1
73534.4
73927.1
74371.6
74832.9
75373
75887.6
76554.6
77069
77944.1
78293.8
79598.3
79284.3
81610.4
79100
73123.4
72618.2
72674
72455.4
72412.7
72266.1
72201.3
72093.4
72023.4
71937.5
71869.6
71797.4
71734.4
71671.7
71614.3
71558.8
71506.9
71457.3
71410.6
71366.1
71324
71284.1
71246.4
71210.8
71177.3
71146
71117
71090.5
71066.6
71045.9
71028.7
71015.5
71007
71004.1
71007.7
71018.8
71038.6
71068.6
71110.2
71165
71234.7
71321
71426
71551.5
71699.4
71872
72070.8
72298.8
72556.2
72847.7
73170.6
73534
73926.7
74371.2
74832.6
75372.7
75887.4
76554.5
77069
77944
78293.8
79597.9
79284.8
81607.3
79102.3
73122.1
72617.8
72673.5
72454.8
72412
72265.4
72200.5
72092.7
72022.7
71936.8
71868.9
71796.7
71733.7
71671
71613.6
71558.1
71506.2
71456.6
71409.8
71365.3
71323.3
71283.3
71245.6
71210
71176.5
71145.2
71116.2
71089.7
71065.9
71045.2
71027.9
71014.7
71006.3
71003.4
71006.9
71018
71037.9
71067.9
71109.5
71164.3
71234
71320.3
71425.3
71550.8
71698.7
71871.3
72070.2
72298.1
72555.7
72847.2
73170.1
73533.5
73926.2
74370.8
74832.2
75372.4
75887.1
76554.1
77068.7
77943.5
78293.4
79596.5
79284.5
81600.9
79104.8
73120.7
72617.4
72672.9
72454.1
72411.3
72264.7
72199.8
72091.9
72021.9
71936
71868.2
71795.9
71732.9
71670.2
71612.8
71557.3
71505.4
71455.8
71409.1
71364.6
71322.5
71282.6
71244.8
71209.2
71175.8
71144.5
71115.5
71088.9
71065.1
71044.4
71027.1
71013.9
71005.5
71002.6
71006.1
71017.3
71037.2
71067.2
71108.8
71163.5
71233.2
71319.6
71424.5
71550.1
71698
71870.6
72069.5
72297.5
72555
72846.5
73169.5
73532.9
73925.7
74370.3
74831.7
75371.8
75886.6
76553.5
77068.1
77942.5
78292.5
79593.9
79283.2
81591.2
79107.5
73119.3
72617
72672.3
72453.4
72410.5
72264
72199
72091.2
72021.2
71935.3
71867.4
71795.2
71732.2
71669.4
71612
71556.5
71504.6
71455
71408.3
71363.8
71321.7
71281.8
71244
71208.4
71175
71143.7
71114.7
71088.1
71064.3
71043.6
71026.3
71013.1
71004.7
71001.8
71005.3
71016.5
71036.4
71066.4
71108
71162.8
71232.4
71318.8
71423.8
71549.3
71697.2
71869.9
72068.8
72296.8
72554.3
72845.8
73168.8
73532.2
73925
74369.6
74831
75371.1
75885.9
76552.6
77067.1
77941
78290.9
79590.2
79281.1
81578.3
79110.4
73117.9
72616.6
72671.6
72452.7
72409.8
72263.2
72198.3
72090.4
72020.3
71934.4
71866.6
71794.3
71731.3
71668.6
71611.2
71555.7
71503.8
71454.2
71407.4
71362.9
71320.9
71280.9
71243.2
71207.6
71174.1
71142.8
71113.8
71087.3
71063.5
71042.7
71025.5
71012.3
71003.9
71001
71004.5
71015.6
71035.5
71065.5
71107.1
71161.9
71231.6
71318
71423
71548.5
71696.4
71869.1
72068
72296
72553.5
72845.1
73168.1
73531.4
73924.2
74368.8
74830.2
75370.2
75884.9
76551.3
77065.8
77938.8
78288.7
79585.1
79277.9
81562.1
79113.5
73116.4
72616.2
72670.9
72452
72409
72262.4
72197.4
72089.5
72019.5
71933.6
71865.7
71793.5
71730.5
71667.7
71610.3
71554.8
71502.9
71453.3
71406.6
71362.1
71320
71280.1
71242.3
71206.7
71173.3
71142
71113
71086.4
71062.6
71041.9
71024.6
71011.4
71003
71000.1
71003.6
71014.8
71034.7
71064.7
71106.3
71161.1
71230.8
71317.2
71422.1
71547.6
71695.6
71868.3
72067.1
72295.1
72552.7
72844.2
73167.2
73530.5
73923.3
74367.8
74829.2
75369
75883.6
76549.7
77064
77935.9
78285.8
79578.5
79273.7
81542.6
79116.5
73114.8
72615.6
72670.1
72451.2
72408.2
72261.5
72196.6
72088.7
72018.6
71932.7
71864.8
71792.6
71729.6
71666.8
71609.4
71553.9
71502
71452.4
71405.7
71361.2
71319.1
71279.2
71241.4
71205.8
71172.4
71141.1
71112.1
71085.5
71061.7
71041
71023.7
71010.5
71002.1
70999.2
71002.7
71013.9
71033.8
71063.8
71105.4
71160.2
71229.8
71316.3
71421.2
71546.7
71694.7
71867.3
72066.2
72294.2
72551.7
72843.2
73166.2
73529.5
73922.2
74366.7
74827.9
75367.6
75882.1
76547.7
77061.7
77932.2
78282.1
79570.4
79268.3
81520.1
79119.4
73113.2
72615.1
72669.2
72450.4
72407.4
72260.7
72195.7
72087.8
72017.7
71931.8
71863.9
71791.7
71728.7
71665.9
71608.5
71553
71501.1
71451.5
71404.7
71360.2
71318.2
71278.2
71240.5
71204.9
71171.4
71140.1
71111.1
71084.6
71060.8
71040
71022.8
71009.6
71001.1
70998.2
71001.8
71012.9
71032.8
71062.8
71104.4
71159.2
71228.9
71315.3
71420.2
71545.8
71693.7
71866.4
72065.2
72293.2
72550.7
72842.2
73165.1
73528.3
73921
74365.3
74826.5
75365.9
75880.2
76545.2
77058.9
77927.6
78277.6
79560.8
79261.7
81494.5
79121.9
73111.4
72614.5
72668.3
72449.5
72406.5
72259.8
72194.8
72086.8
72016.8
71930.9
71863
71790.7
71727.7
71664.9
71607.6
71552
71500.1
71450.5
71403.8
71359.3
71317.2
71277.3
71239.5
71203.9
71170.4
71139.1
71110.2
71083.6
71059.8
71039.1
71021.8
71008.6
71000.2
70997.3
71000.8
71011.9
71031.8
71061.8
71103.4
71158.2
71227.9
71314.3
71419.2
71544.8
71692.7
71865.3
72064.2
72292.1
72549.6
72841
73163.9
73527
73919.6
74363.8
74824.8
75363.9
75877.9
76542.1
77055.5
77922.3
78272.2
79549.5
79253.8
81465.8
79123.9
73109.6
72613.9
72667.3
72448.5
72405.6
72258.8
72193.8
72085.9
72015.8
71929.9
71862
71789.7
71726.7
71664
71606.6
71551
71499.1
71449.5
71402.8
71358.3
71316.2
71276.3
71238.5
71202.9
71169.4
71138.1
71109.1
71082.6
71058.8
71038
71020.8
71007.6
70999.1
70996.2
70999.8
71010.9
71030.8
71060.8
71102.4
71157.2
71226.8
71313.2
71418.2
71543.7
71691.6
71864.2
72063
72290.9
72548.3
72839.7
73162.5
73525.5
73918
74362
74822.8
75361.6
75875.2
76538.5
77051.6
77916
78266
79536.5
79244.5
81433.9
79125.1
73107.7
72613.2
72666.3
72447.5
72404.6
72257.9
72192.8
72084.9
72014.8
71928.9
71860.9
71788.7
71725.7
71662.9
71605.5
71550
71498.1
71448.5
71401.7
71357.2
71315.1
71275.2
71237.5
71201.9
71168.4
71137.1
71108.1
71081.5
71057.7
71037
71019.7
71006.5
70998.1
70995.2
70998.7
71009.8
71029.7
71059.7
71101.3
71156.1
71225.7
71312.1
71417
71542.5
71690.4
71863
72061.7
72289.6
72547
72838.3
73160.9
73523.9
73916.2
74360
74820.6
75358.8
75872.1
76534.4
77047
77908.8
78258.7
79521.7
79233.7
81398.6
79125.3
73105.7
72612.6
72665.2
72446.5
72403.6
72256.8
72191.8
72083.8
72013.7
71927.8
71859.9
71787.6
71724.6
71661.8
71604.4
71548.9
71497
71447.4
71400.6
71356.1
71314
71274.1
71236.4
71200.8
71167.3
71136
71107
71080.4
71056.6
71035.9
71018.6
71005.4
70997
70994.1
70997.6
71008.7
71028.6
71058.6
71100.2
71154.9
71224.6
71310.9
71415.8
71541.3
71689.1
71861.7
72060.4
72288.2
72545.5
72836.7
73159.2
73522
73914.2
74357.6
74817.9
75355.6
75868.5
76529.6
77041.6
77900.6
78250.3
79505
79221.4
81360
79124.5
73103.7
72611.9
72664.1
72445.4
72402.5
72255.8
72190.7
72082.8
72012.7
71926.7
71858.8
71786.5
71723.5
71660.7
71603.3
71547.8
71495.9
71446.3
71399.5
71355
71312.9
71273
71235.2
71199.6
71166.1
71134.8
71105.8
71079.3
71055.5
71034.7
71017.5
71004.3
70995.8
70992.9
70996.5
71007.6
71027.4
71057.4
71099
71153.7
71223.3
71309.7
71414.5
71540
71687.8
71860.3
72058.9
72286.6
72543.8
72834.9
73157.4
73520
73911.9
74355
74814.9
75352
75864.4
76524.1
77035.6
77891.2
78240.8
79486.2
79207.5
81317.8
79122.2
73101.6
72611.2
72663
72444.2
72401.3
72254.7
72189.6
72081.6
72011.5
71925.5
71857.6
71785.4
71722.3
71659.6
71602.1
71546.6
71494.7
71445.1
71398.3
71353.8
71311.7
71271.8
71234.1
71198.4
71165
71133.7
71104.7
71078.1
71054.3
71033.5
71016.3
71003.1
70994.6
70991.7
70995.2
71006.3
71026.2
71056.2
71097.7
71152.5
71222.1
71308.4
71413.2
71538.6
71686.3
71858.8
72057.4
72285
72542.1
72833
73155.3
73517.6
73909.3
74352
74811.6
75347.9
75859.8
76518
77028.7
77880.6
78230.1
79465.2
79191.8
81272
79118.5
73099.3
72610.4
72661.8
72443
72400.1
72253.5
72188.4
72080.4
72010.3
71924.4
71856.4
71784.2
71721.1
71658.3
71600.9
71545.4
71493.5
71443.9
71397.1
71352.6
71310.5
71270.6
71232.8
71197.2
71163.7
71132.4
71103.4
71076.9
71053.1
71032.3
71015
71001.8
70993.4
70990.4
70994
71005.1
71024.9
71054.9
71096.4
71151.1
71220.7
71307
71411.8
71537.1
71684.8
71857.2
72055.7
72283.2
72540.1
72830.9
73153
73515.1
73906.4
74348.7
74807.8
75343.3
75854.5
76511
77021
77868.7
78218.1
79441.9
79174.3
81222.3
79112.9
73097
72609.6
72660.5
72441.7
72398.9
72252.2
72187.2
72079.2
72009.1
71923.1
71855.2
71782.9
71719.9
71657.1
71599.7
71544.1
71492.2
71442.6
71395.8
71351.3
71309.2
71269.3
71231.6
71195.9
71162.5
71131.2
71102.1
71075.6
71051.8
71031
71013.8
71000.6
70992.1
70989.1
70992.7
71003.7
71023.6
71053.5
71095
71149.7
71219.3
71305.5
71410.2
71535.5
71683.1
71855.4
72053.8
72281.2
72538
72828.6
73150.4
73512.2
73903.2
74345
74803.6
75338.2
75848.7
76503.2
77012.3
77855.5
78204.7
79416.3
79154.8
81168.7
79105.5
73094.7
72608.8
72659.2
72440.4
72397.6
72250.9
72185.9
72077.9
72007.8
71921.8
71853.9
71781.6
71718.6
71655.8
71598.4
71542.8
71490.9
71441.3
71394.5
71350
71307.9
71268
71230.2
71194.6
71161.1
71129.8
71100.8
71074.3
71050.4
71029.7
71012.4
70999.2
70990.7
70987.8
70991.3
71002.4
71022.2
71052.1
71093.6
71148.2
71217.8
71304
71408.6
71533.8
71681.4
71853.6
72051.8
72279.1
72535.7
72826.1
73147.6
73509
73899.6
74340.8
74798.8
75332.4
75842.1
76494.5
77002.6
77840.7
78189.7
79388.1
79133.3
81111
79095.8
73092.2
72607.9
72657.9
72439
72396.2
72249.6
72184.6
72076.6
72006.5
71920.5
71852.5
71780.3
71717.2
71654.4
71597
71541.5
71489.5
71439.9
71393.1
71348.6
71306.5
71266.6
71228.9
71193.2
71159.7
71128.4
71099.4
71072.9
71049.1
71028.3
71011
70997.8
70989.3
70986.4
70989.9
71000.9
71020.7
71050.6
71092.1
71146.7
71216.2
71302.3
71406.9
71532.1
71679.5
71851.6
72049.7
72276.8
72533.2
72823.3
73144.5
73505.5
73895.7
74336.2
74793.6
75326
75834.7
76484.8
76991.8
77824.4
78173.2
79357.2
79109.7
81049
79083.8
73089.6
72607
72656.4
72437.6
72394.7
72248.2
72183.2
72075.2
72005.1
71919.1
71851.1
71778.9
71715.8
71653
71595.6
71540
71488.1
71438.5
71391.7
71347.2
71305.1
71265.2
71227.4
71191.8
71158.3
71127
71098
71071.4
71047.6
71026.8
71009.6
70996.3
70987.8
70984.9
70988.4
70999.4
71019.2
71049.1
71090.5
71145.1
71214.5
71300.6
71405.1
71530.2
71677.5
71849.4
72047.4
72274.3
72530.5
72820.2
73141.1
73501.7
73891.3
74331.1
74787.7
75318.9
75826.6
76474.1
76979.8
77806.4
78155
79323.5
79083.7
80982.7
79069.1
73087
72606
72655
72436.1
72393.2
72246.7
72181.7
72073.7
72003.6
71917.6
71849.7
71777.4
71714.3
71651.5
71594.1
71538.6
71486.6
71437
71390.2
71345.7
71303.6
71263.7
71225.9
71190.3
71156.8
71125.5
71096.5
71069.9
71046.1
71025.3
71008.1
70994.8
70986.3
70983.3
70986.8
70997.8
71017.6
71047.4
71088.8
71143.4
71212.7
71298.7
71403.2
71528.1
71675.3
71847.1
72044.9
72271.6
72527.5
72816.9
73137.4
73497.4
73886.5
74325.5
74781.3
75311
75817.5
76462.2
76966.5
77786.6
78134.9
79286.9
79055.4
80911.8
79051.6
73084.2
72605
72653.4
72434.6
72391.7
72245.1
72180.2
72072.2
72002.1
71916.1
71848.2
71775.9
71712.8
71650
71592.6
71537
71485.1
71435.5
71388.7
71344.2
71302.1
71262.1
71224.4
71188.8
71155.3
71124
71094.9
71068.4
71044.5
71023.8
71006.5
70993.2
70984.7
70981.7
70985.2
70996.2
71015.9
71045.7
71087.1
71141.5
71210.8
71296.8
71401.1
71526
71673
71844.6
72042.2
72268.6
72524.2
72813.3
73133.3
73492.8
73881.2
74319.3
74774.2
75302.3
75807.6
76449
76951.9
77764.9
78112.8
79247.2
79024.5
80836.4
79031
73081.4
72604
72651.8
72432.9
72390.1
72243.5
72178.5
72070.6
72000.5
71914.5
71846.6
71774.3
71711.2
71648.4
71591
71535.4
71483.5
71433.9
71387.1
71342.6
71300.5
71260.5
71222.8
71187.2
71153.7
71122.3
71093.3
71066.8
71042.9
71022.1
71004.8
70991.6
70983.1
70980.1
70983.5
70994.5
71014.2
71043.9
71085.2
71139.6
71208.9
71294.7
71399
71523.7
71670.6
71842
72039.3
72265.4
72520.7
72809.3
73128.9
73487.7
73875.4
74312.4
74766.3
75292.6
75796.5
76434.6
76935.8
77741.1
78088.7
79204.3
78990.8
80756.3
79006.9
73078.4
72602.9
72650.2
72431.3
72388.4
72241.8
72176.8
72068.9
71998.8
71912.9
71844.9
71772.6
71709.6
71646.8
71589.3
71533.8
71481.9
71432.2
71385.4
71340.9
71298.8
71258.9
71221.1
71185.5
71152
71120.7
71091.6
71065.1
71041.2
71020.4
71003.1
70989.9
70981.3
70978.3
70981.7
70992.7
71012.3
71042.1
71083.3
71137.6
71206.8
71292.5
71396.6
71521.2
71667.9
71839.1
72036.2
72261.9
72516.8
72805
73124
73482.1
73869
74304.9
74757.6
75282
75784.4
76418.7
76918.1
77715.2
78062.4
79158.1
78954.4
80671.3
78979.2
73075.3
72601.8
72648.4
72429.5
72386.7
72240.1
72175.1
72067.2
71997.1
71911.1
71843.2
71770.9
71707.9
71645
71587.6
71532.1
71480.1
71430.5
71383.7
71339.2
71297.1
71257.1
71219.4
71183.7
71150.2
71118.9
71089.9
71063.3
71039.5
71018.7
71001.4
70988.1
70979.5
70976.5
70979.9
70990.8
71010.4
71040.1
71081.3
71135.5
71204.6
71290.2
71394.2
71518.5
71665.1
71836
72032.8
72258.2
72512.6
72800.2
73118.6
73475.9
73862
74296.6
74748.1
75270.4
75771
76401.3
76898.7
77687
78033.6
79108.3
78914.9
80581.4
78947.6
73072.1
72600.6
72646.6
72427.7
72384.8
72238.2
72173.3
72065.4
71995.3
71909.3
71841.4
71769.1
71706.1
71643.3
71585.8
71530.3
71478.3
71428.7
71381.9
71337.4
71295.3
71255.3
71217.6
71181.9
71148.4
71117.1
71088.1
71061.5
71037.6
71016.8
70999.5
70986.2
70977.7
70974.6
70978
70988.8
71008.4
71038
71079.1
71133.3
71202.2
71287.7
71391.6
71515.7
71662
71832.7
72029.1
72254.1
72508.1
72795.1
73112.8
73469.2
73854.3
74287.6
74737.7
75257.6
75756.4
76382.2
76877.4
77656.3
78002.4
79054.9
78872.1
80486.6
78911.7
73068.8
72599.3
72644.7
72425.8
72382.9
72236.3
72171.4
72063.5
71993.4
71907.5
71839.5
71767.2
71704.2
71641.4
71584
71528.4
71476.5
71426.8
71380
71335.5
71293.4
71253.4
71215.7
71180
71146.5
71115.2
71086.2
71059.6
71035.7
71014.9
70997.6
70984.3
70975.7
70972.6
70975.9
70986.8
71006.3
71035.8
71076.9
71130.9
71199.8
71285.1
71388.8
71512.7
71658.7
71829.1
72025.2
72249.7
72503.1
72789.5
73106.5
73461.9
73845.9
74277.7
74726.2
75243.7
75740.3
76361.4
76854.2
77623
77968.4
78997.7
78826
80386.7
78871.2
73065.4
72598
72642.8
72423.8
72381
72234.4
72169.4
72061.5
71991.4
71905.5
71837.6
71765.3
71702.2
71639.4
71582
71526.4
71474.5
71424.9
71378.1
71333.6
71291.4
71251.5
71213.7
71178.1
71144.6
71113.3
71084.2
71057.6
71033.8
71012.9
70995.6
70982.3
70973.7
70970.5
70973.8
70984.6
71004.1
71033.6
71074.5
71128.5
71197.1
71282.3
71385.8
71509.5
71655.2
71825.2
72020.9
72245
72497.8
72783.4
73099.5
73453.9
73836.7
74266.8
74713.7
75228.4
75722.7
76338.7
76828.9
77586.9
77931.6
78936.5
78776.2
80281.8
78825.9
73061.9
72596.7
72640.8
72421.8
72378.9
72232.3
72167.3
72059.4
71989.4
71903.4
71835.5
71763.2
71700.2
71637.4
71580
71524.4
71472.5
71422.9
71376
71331.5
71289.4
71249.5
71211.7
71176.1
71142.5
71111.2
71082.2
71055.6
71031.7
71010.9
70993.5
70980.2
70971.5
70968.4
70971.6
70982.4
71001.8
71031.2
71072
71125.9
71194.4
71279.4
71382.6
71506.1
71651.5
71821.1
72016.3
72239.8
72492
72776.8
73092
73445.2
73826.6
74254.9
74700
75211.6
75703.5
76313.9
76801.3
77548
77891.8
78871.3
78722.5
80171.6
78775.5
73058.2
72595.3
72638.7
72419.7
72376.8
72230.2
72165.2
72057.3
71987.2
71901.3
71833.4
71761.1
71698.1
71635.3
71577.8
71522.3
71470.4
71420.7
71373.9
71329.4
71287.3
71247.3
71209.6
71173.9
71140.4
71109.1
71080
71053.4
71029.6
71008.7
70991.3
70978
70969.3
70966.1
70969.3
70980
70999.3
71028.7
71069.4
71123.1
71191.5
71276.3
71379.3
71502.4
71647.5
71816.7
72011.4
72234.3
72485.7
72769.7
73083.8
73435.7
73815.7
74242
74685
75193.4
75682.6
76287.1
76771.3
77505.9
77848.6
78801.7
78664.8
80056.3
78719.8
73054.4
72593.8
72636.5
72417.4
72374.5
72227.9
72163
72055.1
71985
71899.1
71831.1
71758.9
71695.9
71633.1
71575.6
71520.1
71468.2
71418.5
71371.7
71327.2
71285.1
71245.1
71207.4
71171.7
71138.2
71106.9
71077.8
71051.2
71027.3
71006.5
70989.1
70975.7
70967
70963.8
70966.9
70977.5
70996.8
71026
71066.6
71120.2
71188.4
71272.9
71375.7
71498.5
71643.2
71811.9
72006
72228.2
72478.9
72761.9
73074.9
73425.4
73803.7
74227.9
74668.6
75173.5
75659.7
76257.8
76738.7
77460.6
77802
78727.8
78602.8
79935.8
78658.3
73050.4
72592.3
72634.2
72415.1
72372.2
72225.6
72160.7
72052.7
71982.7
71896.8
71828.8
71756.6
71693.6
71630.8
71573.3
71517.8
71465.9
71416.2
71369.4
71324.9
71282.8
71242.8
71205.1
71169.4
71135.9
71104.6
71075.5
71048.9
71025
71004.1
70986.7
70973.3
70964.6
70961.3
70964.4
70975
70994.1
71023.2
71063.7
71117.1
71185.1
71269.4
71371.9
71494.3
71638.6
71806.8
72000.3
72221.8
72471.5
72753.4
73065.2
73414.1
73790.7
74212.5
74650.8
75151.9
75634.8
76226.2
76703.3
77411.8
77751.8
78649.2
78536.1
79810.1
78590.9
73046.3
72590.6
72631.8
72412.8
72369.8
72223.2
72158.2
72050.3
71980.3
71894.3
71826.4
71754.2
71691.1
71628.4
71571
71515.4
71463.5
71413.8
71367
71322.5
71280.4
71240.5
71202.7
71167
71133.5
71102.2
71073.1
71046.5
71022.6
71001.7
70984.3
70970.8
70962.1
70958.8
70961.8
70972.3
70991.3
71020.3
71060.6
71113.9
71181.6
71265.7
71367.8
71489.9
71633.6
71801.2
71994.1
72214.7
72463.5
72744.3
73054.7
73401.8
73776.6
74195.7
74631.4
75128.3
75607.7
76191.8
76665
77359.4
77697.6
78565.9
78464.7
79679
78517.2
73042.1
72588.9
72629.3
72410.3
72367.3
72220.7
72155.7
72047.8
71977.8
71891.8
71823.9
71751.7
71688.6
71625.9
71568.5
71512.9
71461
71411.4
71364.5
71320
71277.9
71238
71200.2
71164.6
71131
71099.7
71070.6
71044
71020.1
70999.2
70981.7
70968.2
70959.4
70956.1
70959.1
70969.4
70988.4
71017.2
71057.4
71110.4
71177.9
71261.7
71363.4
71485.1
71628.3
71795.3
71987.4
72207.1
72454.9
72734.3
73043.2
73388.5
73761.1
74177.5
74610.2
75102.7
75578.3
76154.7
76623.4
77303.1
77639.2
78477.7
78388
79542.7
78436.8
73037.7
72587.2
72626.8
72407.7
72364.7
72218.1
72153.1
72045.2
71975.1
71889.2
71821.3
71749
71686
71623.2
71565.9
71510.3
71458.4
71408.8
71362
71317.4
71275.3
71235.4
71197.6
71162
71128.4
71097.1
71068
71041.4
71017.4
70996.5
70979
70965.5
70956.7
70953.3
70956.2
70966.5
70985.3
71014
71054
71106.8
71174
71257.5
71358.8
71480
71622.6
71788.9
71980.2
72198.9
72445.5
72723.5
73030.8
73374
73744.3
74157.6
74587.2
75074.9
75546.3
76114.5
76578.4
77242.8
77576.4
78384.3
78306
79401
78349.5
73033.2
72585.3
72624.1
72405
72362
72215.4
72150.4
72042.5
71972.4
71886.5
71818.6
71746.3
71683.3
71620.5
71563.1
71507.6
71455.7
71406.1
71359.3
71314.7
71272.6
71232.7
71194.9
71159.3
71125.7
71094.4
71065.3
71038.7
71014.7
70993.8
70976.3
70962.7
70953.8
70950.4
70953.2
70963.4
70982.1
71010.6
71050.4
71103
71169.9
71253
71353.9
71474.5
71616.5
71782.1
71972.4
72190.1
72435.4
72711.8
73017.3
73358.2
73726.1
74136
74562.2
75044.7
75511.5
76071
76529.8
77178.1
77508.8
78285.7
78218.2
79253.8
78254.8
73028.5
72583.4
72621.3
72402.2
72359.2
72212.6
72147.6
72039.7
71969.6
71883.7
71815.7
71743.5
71680.5
71617.7
71560.3
71504.8
71452.9
71403.3
71356.5
71311.9
71269.8
71229.9
71192.1
71156.4
71122.9
71091.6
71062.5
71035.8
71011.8
70990.9
70973.4
70959.8
70950.8
70947.3
70950
70960.1
70978.7
71007.1
71046.6
71098.9
71165.5
71248.2
71348.6
71468.6
71610
71774.7
71964
72180.5
72424.4
72699.1
73002.6
73341.1
73706.2
74112.6
74535
75011.9
75473.8
76024
76477.2
77108.8
77436.3
78181.5
78124.3
79101.1
78152.4
73023.6
72581.4
72618.4
72399.3
72356.3
72209.7
72144.7
72036.8
71966.7
71880.7
71812.8
71740.6
71677.5
71614.8
71557.3
71501.8
71449.9
71400.3
71353.5
71309
71266.9
71226.9
71189.2
71153.5
71120
71088.6
71059.5
71032.8
71008.9
70987.9
70970.3
70956.7
70947.7
70944.1
70946.7
70956.7
70975.1
71003.3
71042.6
71094.6
71160.9
71243.1
71343
71462.4
71603
71766.7
71955
72170.2
72412.5
72685.4
72986.7
73322.6
73684.6
74087.1
74505.4
74976.4
75433
75973.4
76420.4
77034.7
77358.4
78071.5
78024
78942.8
78042
73018.6
72579.3
72615.4
72396.3
72353.3
72206.7
72141.6
72033.7
71963.6
71877.7
71809.7
71737.5
71674.5
71611.7
71554.3
71498.7
71446.8
71397.2
71350.4
71305.9
71263.9
71223.9
71186.1
71150.5
71116.9
71085.6
71056.5
71029.8
71005.8
70984.7
70967.1
70953.5
70944.4
70940.7
70943.3
70953.1
70971.4
70999.3
71038.4
71090.1
71155.9
71237.7
71337
71455.7
71595.5
71758.2
71945.3
72159
72399.7
72670.6
72969.5
73302.5
73661.3
74059.5
74473.4
74937.9
75388.7
75918.7
76359.1
76955.5
77274.8
77955.6
77917
78778.7
77923.3
73013.3
72577
72612.3
72393.1
72350.1
72203.5
72138.5
72030.5
71960.4
71874.5
71806.6
71734.3
71671.3
71608.5
71551.1
71495.6
71443.7
71394
71347.3
71302.8
71260.6
71220.7
71183
71147.3
71113.8
71082.4
71053.2
71026.6
71002.5
70981.5
70963.9
70950.2
70941
70937.2
70939.7
70949.3
70967.4
70995.2
71033.9
71085.3
71150.7
71232
71330.6
71448.6
71587.4
71749.1
71934.9
72147
72385.9
72654.5
72950.9
73280.7
73635.9
74029.5
74438.6
74896.2
75340.7
75859.8
76292.9
76870.8
77185.2
77833.4
77803
78608.8
77795.9
73007.9
72574.7
72609
72389.9
72346.8
72200.2
72135.2
72027.2
71957.1
71871.2
71803.3
71731
71668
71605.2
71547.8
71492.3
71440.4
71390.7
71343.9
71299.4
71257.3
71217.4
71179.6
71144
71110.5
71079.1
71050
71023.3
70999.2
70978.1
70960.4
70946.7
70937.5
70933.6
70935.9
70945.4
70963.3
70990.7
71029.2
71080.2
71145.2
71225.8
71323.8
71441
71578.8
71739.3
71923.7
72134.2
72371
72637.2
72930.8
73257.1
73608.5
73997.1
74400.9
74851.1
75288.8
75796.4
76221.6
76780.4
77089.2
77704.7
77681.4
78432.7
77659.7
73002.4
72572.3
72605.6
72386.5
72343.4
72196.8
72131.7
72023.8
71953.7
71867.8
71799.8
71727.6
71664.5
71601.8
71544.4
71488.8
71436.9
71387.3
71340.5
71296
71253.9
71213.9
71176.2
71140.5
71107
71075.6
71046.4
71019.8
70995.7
70974.6
70956.9
70943
70933.7
70929.7
70931.9
70941.3
70958.9
70986.1
71024.3
71074.8
71139.3
71219.3
71316.5
71432.8
71569.5
71728.8
71911.6
72120.2
72354.9
72618.5
72909.1
73231.7
73578.8
73962.1
74360.2
74802.5
75232.7
75728.1
76144.8
76683.9
76986.4
77569.1
77552.1
78250.2
77514.3
72996.6
72569.7
72602.1
72383
72339.9
72193.2
72128.2
72020.2
71950.1
71864.2
71796.3
71724
71661
71598.2
71540.8
71485.2
71433.3
71383.7
71336.9
71292.4
71250.3
71210.4
71172.6
71136.9
71103.4
71072
71042.9
71016.1
70992
70970.9
70953.1
70939.3
70929.9
70925.8
70927.8
70936.9
70954.3
70981.2
71018.9
71069
71132.9
71212.3
71308.8
71424
71559.6
71717.4
71898.5
72105.1
72337.5
72598.3
72885.5
73204.1
73546.8
73924.3
74316.1
74749.9
75172.1
75654.6
76062.1
76580.9
76876.3
77426.3
77414.4
78061
77359.6
72990.6
72567.1
72598.4
72379.3
72336.2
72189.5
72124.5
72016.5
71946.4
71860.5
71792.5
71720.3
71657.2
71594.5
71537.1
71481.5
71429.6
71380
71333.2
71288.7
71246.6
71206.6
71168.9
71133.2
71099.6
71068.2
71039.1
71012.3
70988.2
70967
70949.2
70935.2
70925.7
70921.5
70923.4
70932.4
70949.5
70976.1
71013.5
71063
71126.3
71204.8
71300.4
71414.5
71548.8
71705.1
71884.4
72088.9
72318.7
72576.4
72860
73174.3
73512
73883.3
74268.5
74693.3
75106.8
75575.7
75973.2
76471.2
76758.7
77275.9
77268.1
77864.7
77195.6
72984.5
72564.3
72594.6
72375.5
72332.3
72185.7
72120.6
72012.7
71942.6
71856.6
71788.7
71716.4
71653.4
71590.6
71533.2
71477.6
71425.7
71376.1
71329.3
71284.8
71242.7
71202.8
71165
71129.3
71095.7
71064.3
71035.2
71008.4
70984.2
70963
70945.1
70931.1
70921.5
70917.2
70918.8
70927.5
70944.4
70970.6
71007.5
71056.6
71119.2
71197
71291.6
71404.5
71537.4
71691.9
71869.2
72071.2
72298.2
72552.5
72832.4
73142
73474.3
73839
74217.1
74632.2
75036.5
75491.2
75877.8
76354.2
76632.9
77117.6
77112.7
77660.7
77022
72978.1
72561.4
72590.6
72371.5
72328.3
72181.7
72116.6
72008.7
71938.5
71852.6
71784.7
71712.4
71649.4
71586.6
71529.2
71473.6
71421.7
71372.1
71325.3
71280.8
71238.7
71198.7
71160.9
71125.3
71091.7
71060.3
71031.1
71004.3
70980.1
70958.8
70940.9
70926.8
70917.1
70912.5
70914.1
70922.6
70939.1
70965
71001.4
71049.8
71111.6
71188.6
71282
71393.7
71525.1
71677.8
71853
72052.4
72276.3
72527
72802.5
73106.9
73433.5
73791.1
74161.4
74566.3
74960.7
75400.4
75775.5
76229.8
76498.7
76950.8
76947.8
77448.6
76839.1
72971.5
72558.3
72586.5
72367.4
72324.2
72177.5
72112.5
72004.5
71934.4
71848.4
71780.5
71708.2
71645.2
71582.4
71525
71469.4
71417.5
71367.9
71321.1
71276.6
71234.5
71194.5
71156.7
71121.1
71087.5
71056
71026.8
71000
70975.8
70954.5
70936.5
70922.3
70912.5
70907.8
70909.1
70917.3
70933.5
70959
70994.9
71042.7
71103.8
71179.8
71272.1
71382.4
71512.1
71662.7
71835.5
72032.1
72252.7
72499.4
72770.4
73069.3
73389.6
73739.3
74101.2
74495.3
74879
75303.1
75665.9
76097.6
76355.8
76775.4
76773
77227.8
76646.9
72964.7
72555.1
72582.2
72363.1
72319.9
72173.2
72108.1
72000.2
71930
71844.1
71776.1
71703.9
71640.8
71578
71520.6
71465.1
71413.2
71363.5
71316.7
71272.2
71230.1
71190.2
71152.4
71116.7
71083.1
71051.6
71022.4
70995.6
70971.3
70950
70931.9
70917.6
70907.6
70902.8
70903.9
70911.8
70927.7
70952.7
70988.1
71035.2
71095.5
71170.5
71261.6
71370.4
71498.4
71646.9
71817.2
72010.7
72227.6
72470
72735.9
73028.9
73342.4
73683.8
74036.7
74419.1
74791.2
75199.2
75548.6
75957.3
76203.9
76591.1
76588.3
76998
76445.7
72957.7
72551.7
72577.7
72358.6
72315.4
72168.7
72103.6
71995.7
71925.5
71839.6
71771.6
71699.3
71636.3
71573.5
71516.1
71460.5
71408.6
71359
71312.2
71267.7
71225.6
71185.6
71147.8
71112.1
71078.5
71047.1
71017.8
70991
70966.7
70945.2
70927.1
70912.7
70902.6
70897.6
70898.5
70906.1
70921.6
70946.1
70980.9
71027.4
71086.8
71160.7
71250.6
71357.8
71483.9
71630.2
71797.7
71988
72201.2
72439
72699.6
72986
73292
73624.4
73967.4
74337.5
74697.2
75088.1
75423.3
75808.8
76042.8
76397.9
76393.4
76758.5
76235.6
72950.4
72548.2
72573
72354
72310.7
72164
72098.9
71991
71920.8
71834.9
71766.9
71694.6
71631.6
71568.8
71511.4
71455.8
71403.9
71354.3
71307.5
71263
71220.9
71180.9
71143.1
71107.4
71073.8
71042.3
71013.1
70986.1
70961.8
70940.3
70922.1
70907.6
70897.4
70892.2
70892.8
70900.1
70915.2
70939.3
70973.5
71019.1
71077.6
71150.4
71238.8
71344.4
71468.5
71612.4
71777.1
71964.1
72173.2
72406.2
72661.2
72940.7
73239
73561.8
73894.1
74250.8
74597.1
74970.1
75290
75651.6
75872.3
76195.8
76188.8
76509.6
76016
72942.9
72544.5
72568.2
72349.1
72305.8
72159.2
72094.1
71986.1
71915.9
71830
71762
71689.8
71626.7
71563.9
71506.5
71450.9
71399
71349.4
71302.6
71258.1
71216
71176
71138.2
71102.5
71068.9
71037.4
71008.1
70981.2
70956.8
70935.2
70916.9
70902.3
70891.9
70886.5
70886.8
70893.9
70908.5
70932
70965.6
71010.4
71067.9
71139.5
71226.4
71330.3
71452.2
71593.6
71755.3
71938.6
72143.5
72371.4
72620.5
72892.9
73183
73495.8
73817.1
74159.9
74491.7
74845.6
75149
75485.9
75692
75984.3
75974.2
76252.2
75788
72935.2
72540.6
72563.1
72344.1
72300.8
72154.1
72089
71981
71910.9
71824.9
71756.9
71684.7
71621.6
71558.8
71501.4
71445.9
71393.9
71344.3
71297.5
71253
71210.9
71170.9
71133.1
71097.4
71063.8
71032.2
71002.9
70975.9
70951.5
70929.9
70911.5
70896.7
70886.2
70880.6
70880.6
70887.3
70901.5
70924.5
70957.3
71001.2
71057.7
71127.9
71213.3
71315.3
71435
71573.7
71732.1
71911.6
72112
72334.6
72577.3
72842.3
73123.8
73426.2
73736
74064.4
74381.3
74715.6
75001.3
75312.8
75502.6
75763.7
75749
75985.7
75551.4
72927.2
72536.6
72557.9
72338.9
72295.5
72148.8
72083.7
71975.7
71905.6
71819.6
71751.7
71679.4
71616.3
71553.5
71496.1
71440.6
71388.7
71339
71292.2
71247.7
71205.6
71165.6
71127.8
71092.1
71058.4
71026.9
70997.6
70970.5
70946
70924.4
70905.8
70891
70880.2
70874.4
70874.2
70880.4
70894.2
70916.5
70948.5
70991.6
71046.9
71115.7
71199.5
71299.4
71416.7
71552.5
71707.6
71883
72078.6
72295.5
72531.6
72788.8
73061.3
73352.8
73650.6
73964.2
74265.7
74580.2
74847.7
75133.4
75305.7
75535.1
75514.1
75709.8
75306.1
72919
72532.3
72552.4
72333.4
72290.1
72143.4
72078.2
71970.3
71900.1
71814.1
71746.2
71673.9
71610.8
71548
71490.6
71435.1
71383.1
71333.5
71286.7
71242.2
71200.1
71160.1
71122.3
71086.5
71052.9
71021.3
70992
70964.9
70940.4
70918.6
70900
70884.9
70874
70867.9
70867.4
70873.2
70886.5
70908.1
70939.4
70981.4
71035.5
71102.9
71184.8
71282.6
71397.3
71530.1
71681.5
71852.6
72043.2
72254.1
72483.3
72732.1
72995.2
73275.4
73560.7
73859.1
74144.7
74439.1
74687.9
74948
75102.1
75300.2
75271
75425.7
75052.9
72910.5
72527.8
72546.7
72327.8
72284.4
72137.7
72072.5
71964.6
71894.4
71808.4
71740.4
71668.2
71605.1
71542.3
71484.9
71429.3
71377.4
71327.8
71281
71236.5
71194.3
71154.3
71116.5
71080.8