/*--------------------------------*- C++ -*----------------------------------*\
| =========                 |                                                 |
| \\      /  F ield         | OpenFOAM: The Open Source CFD Toolbox           |
|  \\    /   O peration     | Version:  v1906                                 |
|   \\  /    A nd           | Web:      www.OpenFOAM.com                      |
|    \\/     M anipulation  |                                                 |
\*---------------------------------------------------------------------------*/
FoamFile
{
    version     2.0;
    format      ascii;
    class       volScalarField;
    location    "0.3";
    object      p_rgh;
}
// * * * * * * * * * * * * * * * * * * * * * * * * * * * * * * * * * * * * * //

dimensions      [1 -1 -2 0 0 0 0];


internalField   nonuniform List<scalar> 
80000
(
73127.3
72619.4
72676.5
72458.2
72415.5
72269
72204.2
72096.3
72026.4
71940.5
71872.6
71800.4
71737.4
71674.7
71617.3
71561.8
71509.9
71460.4
71413.6
71369.1
71327
71287.1
71249.4
71213.8
71180.3
71149
71120
71093.5
71069.7
71048.9
71031.7
71018.5
71010
71007.1
71010.7
71021.8
71041.6
71071.6
71113.2
71167.9
71237.5
71323.9
71428.7
71554.2
71702
71874.6
72073.3
72301.2
72558.5
72849.9
73172.6
73535.8
73928.3
74372.6
74833.8
75373.6
75887.9
76554.6
77068.8
77943.4
78292.8
79596.2
79281.5
81607.1
79102
73127.9
72619.9
72676.6
72458.2
72415.6
72269.1
72204.2
72096.4
72026.4
71940.5
71872.6
71800.4
71737.4
71674.7
71617.3
71561.8
71509.9
71460.4
71413.6
71369.1
71327
71287.1
71249.4
71213.8
71180.3
71149
71120
71093.5
71069.7
71048.9
71031.7
71018.5
71010
71007.1
71010.7
71021.8
71041.6
71071.6
71113.2
71167.9
71237.6
71323.9
71428.8
71554.3
71702.1
71874.7
72073.4
72301.3
72558.7
72850.1
73172.9
73536.1
73928.7
74373
74834.2
75374.1
75888.5
76555.3
77069.6
77944.3
78293.7
79597.5
79282.8
81609
79097.4
73127.5
72620.3
72676.7
72458.3
72415.6
72269.1
72204.2
72096.4
72026.4
71940.5
71872.7
71800.4
71737.5
71674.7
71617.3
71561.8
71510
71460.4
71413.6
71369.1
71327
71287.1
71249.4
71213.8
71180.3
71149
71120
71093.5
71069.7
71048.9
71031.7
71018.5
71010
71007.1
71010.7
71021.8
71041.7
71071.7
71113.2
71168
71237.6
71324
71428.9
71554.4
71702.2
71874.8
72073.6
72301.5
72558.9
72850.3
73173.2
73536.4
73929
74373.5
74834.7
75374.7
75889.2
76556.1
77070.5
77945.4
78295
79599.3
79284.7
81611.2
79100.3
73127
72620.8
72676.9
72458.4
72415.7
72269.1
72204.3
72096.4
72026.4
71940.5
71872.7
71800.5
71737.5
71674.7
71617.4
71561.9
71510
71460.4
71413.6
71369.1
71327
71287.1
71249.4
71213.8
71180.3
71149
71120
71093.5
71069.7
71048.9
71031.7
71018.5
71010.1
71007.1
71010.7
71021.8
71041.7
71071.7
71113.3
71168
71237.7
71324
71428.9
71554.4
71702.3
71874.9
72073.7
72301.6
72559.1
72850.6
73173.4
73536.7
73929.4
74373.9
74835.2
75375.3
75889.9
76556.9
77071.4
77946.4
78296.1
79600.6
79286.7
81612.7
79102.3
73126.5
72621.2
72677.1
72458.5
72415.7
72269.2
72204.3
72096.5
72026.5
71940.6
71872.7
71800.5
71737.5
71674.8
71617.4
71561.9
71510
71460.4
71413.6
71369.1
71327.1
71287.1
71249.4
71213.8
71180.3
71149
71120.1
71093.5
71069.7
71049
71031.7
71018.5
71010.1
71007.2
71010.7
71021.8
71041.7
71071.7
71113.3
71168.1
71237.7
71324.1
71429
71554.5
71702.4
71875
72073.9
72301.8
72559.3
72850.8
73173.7
73537
73929.8
74374.3
74835.7
75375.8
75890.5
76557.5
77072
77947.1
78296.9
79601
79287.9
81610.4
79105.3
73125.9
72621.6
72677.3
72458.6
72415.8
72269.3
72204.4
72096.5
72026.5
71940.6
71872.7
71800.5
71737.5
71674.8
71617.4
71561.9
71510
71460.4
71413.6
71369.2
71327.1
71287.2
71249.4
71213.8
71180.3
71149.1
71120.1
71093.5
71069.7
71049
71031.7
71018.5
71010.1
71007.2
71010.7
71021.8
71041.7
71071.7
71113.3
71168.1
71237.8
71324.2
71429.1
71554.6
71702.5
71875.1
72074
72302
72559.5
72851
73173.9
73537.3
73930.1
74374.6
74836
75376.2
75890.9
76557.9
77072.5
77947.3
78297.3
79600.3
79288.3
81604.7
79108.6
73125.3
72622
72677.5
72458.7
72415.9
72269.3
72204.4
72096.5
72026.5
71940.6
71872.8
71800.5
71737.5
71674.8
71617.4
71561.9
71510
71460.4
71413.7
71369.2
71327.1
71287.2
71249.4
71213.8
71180.4
71149.1
71120.1
71093.5
71069.7
71049
71031.7
71018.5
71010.1
71007.2
71010.7
71021.9
71041.8
71071.8
71113.3
71168.1
71237.8
71324.2
71429.1
71554.7
71702.6
71875.2
72074.1
72302.1
72559.6
72851.1
73174.1
73537.5
73930.3
74374.9
74836.3
75376.4
75891.2
76558.1
77072.7
77947.1
78297.1
79598.5
79287.8
81595.8
79112.1
73124.7
72622.5
72677.7
72458.8
72415.9
72269.4
72204.5
72096.6
72026.6
71940.7
71872.8
71800.6
71737.6
71674.8
71617.4
71561.9
71510
71460.4
71413.7
71369.2
71327.1
71287.2
71249.5
71213.8
71180.4
71149.1
71120.1
71093.5
71069.7
71049
71031.7
71018.6
71010.1
71007.2
71010.8
71021.9
71041.8
71071.8
71113.4
71168.2
71237.8
71324.2
71429.2
71554.7
71702.6
71875.3
72074.2
72302.2
72559.7
72851.3
73174.2
73537.6
73930.4
74375
74836.5
75376.5
75891.3
76558
77072.5
77946.4
78296.3
79595.6
79286.5
81583.7
79115.8
73124.2
72622.9
72677.9
72459
72416
72269.4
72204.5
72096.6
72026.6
71940.7
71872.8
71800.6
71737.6
71674.8
71617.5
71561.9
71510.1
71460.5
71413.7
71369.2
71327.1
71287.2
71249.5
71213.9
71180.4
71149.1
71120.1
71093.6
71069.8
71049
71031.8
71018.6
71010.1
71007.2
71010.8
71021.9
71041.8
71071.8
71113.4
71168.2
71237.9
71324.3
71429.2
71554.8
71702.7
71875.4
72074.3
72302.3
72559.8
72851.3
73174.3
73537.7
73930.5
74375.1
74836.5
75376.5
75891.1
76557.6
77072
77945
78294.9
79591.4
79284.2
81568.3
79119.7
73123.6
72623.3
72678
72459.1
72416.2
72269.5
72204.6
72096.7
72026.7
71940.7
71872.9
71800.6
71737.6
71674.9
71617.5
71562
71510.1
71460.5
71413.7
71369.2
71327.1
71287.2
71249.5
71213.9
71180.4
71149.1
71120.1
71093.6
71069.8
71049
71031.8
71018.6
71010.1
71007.2
71010.8
71021.9
71041.8
71071.8
71113.4
71168.2
71237.9
71324.3
71429.3
71554.8
71702.7
71875.4
72074.3
72302.3
72559.8
72851.4
73174.3
73537.7
73930.4
74375
74836.3
75376.2
75890.8
76556.9
77071.1
77943
78292.9
79585.7
79280.8
81549.8
79123.6
73122.9
72623.7
72678.1
72459.3
72416.3
72269.6
72204.6
72096.7
72026.7
71940.8
71872.9
71800.7
71737.7
71674.9
71617.5
71562
71510.1
71460.5
71413.7
71369.2
71327.1
71287.2
71249.5
71213.9
71180.4
71149.1
71120.1
71093.6
71069.8
71049
71031.8
71018.6
71010.1
71007.2
71010.8
71021.9
71041.8
71071.8
71113.4
71168.2
71237.9
71324.3
71429.3
71554.8
71702.7
71875.4
72074.3
72302.3
72559.8
72851.3
73174.3
73537.6
73930.3
74374.7
74836
75375.7
75890.1
76555.7
77069.8
77940.2
78290.2
79578.5
79276.4
81528.2
79127.4
73122.2
72624.1
72678.2
72459.4
72416.4
72269.7
72204.7
72096.8
72026.7
71940.8
71872.9
71800.7
71737.7
71674.9
71617.5
71562
71510.1
71460.5
71413.8
71369.3
71327.2
71287.3
71249.5
71213.9
71180.4
71149.1
71120.1
71093.6
71069.8
71049
71031.8
71018.6
71010.2
71007.3
71010.8
71021.9
71041.8
71071.8
71113.4
71168.2
71237.9
71324.3
71429.3
71554.8
71702.7
71875.4
72074.2
72302.2
72559.7
72851.2
73174.1
73537.4
73930
74374.3
74835.5
75374.9
75889.2
76554.2
77067.9
77936.7
78286.6
79569.8
79270.7
81503.5
79130.9
73121.4
72624.5
72678.3
72459.5
72416.5
72269.8
72204.8
72096.9
72026.8
71940.9
71873
71800.7
71737.7
71675
71617.6
71562
71510.1
71460.6
71413.8
71369.3
71327.2
71287.3
71249.5
71213.9
71180.4
71149.2
71120.2
71093.6
71069.8
71049.1
71031.8
71018.6
71010.2
71007.3
71010.8
71021.9
71041.8
71071.8
71113.4
71168.2
71237.9
71324.3
71429.2
71554.8
71702.7
71875.3
72074.2
72302.1
72559.6
72851
73173.9
73537
73929.6
74373.8
74834.8
75373.9
75887.9
76552.1
77065.5
77932.3
78282.2
79559.5
79263.8
81475.8
79133.9
73120.7
72624.9
72678.4
72459.6
72416.6
72269.9
72204.9
72096.9
72026.9
71940.9
71873
71800.8
71737.8
71675
71617.6
71562.1
71510.2
71460.6
71413.8
71369.3
71327.2
71287.3
71249.6
71213.9
71180.5
71149.2
71120.2
71093.6
71069.8
71049.1
71031.8
71018.6
71010.2
71007.3
71010.8
71021.9
71041.8
71071.8
71113.4
71168.2
71237.9
71324.3
71429.2
71554.7
71702.6
71875.2
72074
72301.9
72559.4
72850.7
73173.5
73536.6
73929
74373
74833.9
75372.6
75886.3
76549.6
77062.6
77927.1
78277
79547.6
79255.5
81444.9
79136.1
73119.8
72625.3
72678.4
72459.6
72416.7
72270
72204.9
72097
72026.9
71941
71873.1
71800.8
71737.8
71675
71617.6
71562.1
71510.2
71460.6
71413.8
71369.3
71327.2
71287.3
71249.6
71214
71180.5
71149.2
71120.2
71093.7
71069.8
71049.1
71031.8
71018.6
71010.2
71007.3
71010.8
71022
71041.8
71071.8
71113.4
71168.2
71237.9
71324.2
71429.1
71554.6
71702.5
71875.1
72073.9
72301.7
72559.1
72850.4
73173.1
73536
73928.3
74372.1
74832.7
75370.9
75884.2
76546.5
77059.1
77920.9
78270.8
79533.8
79245.8
81410.8
79137.5
73119
72625.8
72678.5
72459.7
72416.8
72270.1
72205
72097.1
72027
71941
71873.1
71800.9
71737.8
71675.1
71617.7
71562.1
71510.2
71460.6
71413.9
71369.4
71327.3
71287.3
71249.6
71214
71180.5
71149.2
71120.2
71093.7
71069.9
71049.1
71031.9
71018.7
71010.2
71007.3
71010.8
71021.9
71041.8
71071.8
71113.4
71168.2
71237.8
71324.2
71429
71554.5
71702.3
71874.9
72073.6
72301.4
72558.7
72849.9
73172.5
73535.2
73927.4
74370.9
74831.2
75368.8
75881.7
76542.8
77054.9
77913.8
78263.6
79518.2
79234.7
81373.2
79137.7
73118.1
72626.3
72678.5
72459.8
72416.9
72270.2
72205.1
72097.1
72027
71941.1
71873.2
71800.9
71737.9
71675.1
71617.7
71562.2
71510.3
71460.7
71413.9
71369.4
71327.3
71287.4
71249.6
71214
71180.5
71149.2
71120.2
71093.7
71069.9
71049.1
71031.9
71018.7
71010.2
71007.3
71010.8
71021.9
71041.8
71071.8
71113.4
71168.1
71237.7
71324.1
71428.9
71554.4
71702.2
71874.6
72073.3
72301
72558.2
72849.3
73171.7
73534.3
73926.3
74369.4
74829.3
75366.4
75878.8
76538.5
77050
77905.6
78255.2
79500.5
79221.9
81332.2
79136.6
73117.1
72626.8
72678.5
72459.8
72416.9
72270.2
72205.2
72097.2
72027.1
71941.1
71873.2
71801
71737.9
71675.1
71617.7
71562.2
71510.3
71460.7
71413.9
71369.4
71327.3
71287.4
71249.7
71214
71180.6
71149.3
71120.3
71093.7
71069.9
71049.1
71031.9
71018.7
71010.2
71007.3
71010.8
71021.9
71041.8
71071.8
71113.3
71168
71237.6
71324
71428.8
71554.2
71701.9
71874.4
72072.9
72300.6
72557.7
72848.6
73170.9
73533.2
73924.9
74367.6
74827.2
75363.5
75875.4
76533.6
77044.3
77896.2
78245.7
79480.8
79207.4
81287.6
79134
73116.2
72627.3
72678.6
72459.8
72417
72270.3
72205.3
72097.3
72027.2
71941.2
71873.3
71801
71738
71675.2
71617.8
71562.2
71510.3
71460.7
71413.9
71369.4
71327.3
71287.4
71249.7
71214.1
71180.6
71149.3
71120.3
71093.7
71069.9
71049.2
71031.9
71018.7
71010.2
71007.3
71010.8
71021.9
71041.8
71071.7
71113.3
71168
71237.5
71323.8
71428.6
71553.9
71701.6
71874
72072.5
72300
72557
72847.8
73169.8
73531.9
73923.3
74365.5
74824.6
75360.2
75871.4
76527.9
77037.8
77885.6
78234.9
79458.8
79191.1
81239.2
79129.8
73115.2
72627.8
72678.7
72459.9
72417
72270.4
72205.4
72097.4
72027.2
71941.3
71873.3
71801.1
71738
71675.2
71617.8
71562.3
71510.4
71460.8
71414
71369.5
71327.4
71287.5
71249.7
71214.1
71180.6
71149.3
71120.3
71093.8
71069.9
71049.2
71031.9
71018.7
71010.2
71007.3
71010.8
71021.9
71041.7
71071.7
71113.2
71167.9
71237.4
71323.7
71428.4
71553.7
71701.3
71873.6
72072
72299.4
72556.2
72846.8
73168.6
73530.4
73921.4
74363.1
74821.7
75356.3
75866.8
76521.4
77030.4
77873.6
78222.8
79434.4
79173
81186.8
79123.6
73114.2
72628.3
72678.7
72459.9
72417.1
72270.4
72205.4
72097.4
72027.3
71941.3
71873.4
71801.1
71738.1
71675.3
71617.9
71562.3
71510.4
71460.8
71414
71369.5
71327.4
71287.5
71249.7
71214.1
71180.6
71149.3
71120.3
71093.8
71070
71049.2
71031.9
71018.7
71010.2
71007.3
71010.8
71021.9
71041.7
71071.6
71113.1
71167.8
71237.3
71323.5
71428.1
71553.4
71700.9
71873.1
72071.3
72298.6
72555.2
72845.6
73167.1
73528.5
73919.1
74360.3
74818.3
75351.9
75861.6
76514
77022.1
77860.2
78209.2
79407.6
79152.8
81130.5
79115.3
73113.1
72628.8
72678.8
72459.9
72417.1
72270.5
72205.5
72097.5
72027.4
71941.4
71873.5
71801.2
71738.1
71675.3
71617.9
71562.4
71510.5
71460.8
71414.1
71369.5
71327.4
71287.5
71249.8
71214.1
71180.7
71149.4
71120.3
71093.8
71070
71049.2
71031.9
71018.7
71010.2
71007.3
71010.8
71021.8
71041.6
71071.5
71113
71167.6
71237.1
71323.2
71427.8
71553
71700.4
71872.5
72070.6
72297.7
72554.1
72844.2
73165.5
73526.5
73916.6
74357.1
74814.5
75346.9
75855.7
76505.7
77012.7
77845.3
78194.1
79378.1
79130.6
81069.9
79104.7
73112
72629.4
72678.8
72460
72417.1
72270.5
72205.5
72097.6
72027.5
71941.5
71873.5
71801.2
71738.2
71675.4
71618
71562.4
71510.5
71460.9
71414.1
71369.6
71327.5
71287.6
71249.8
71214.2
71180.7
71149.4
71120.4
71093.8
71070
71049.2
71031.9
71018.7
71010.2
71007.3
71010.8
71021.8
71041.6
71071.4
71112.9
71167.4
71236.9
71322.9
71427.5
71552.5
71699.9
71871.8
72069.8
72296.7
72552.8
72842.6
73163.5
73524.1
73913.7
74353.5
74810.1
75341.2
75849
76496.4
77002.2
77828.8
78177.3
79345.9
79106.1
81005
79091.5
73110.9
72629.9
72678.9
72460
72417.1
72270.6
72205.6
72097.6
72027.5
71941.5
71873.6
71801.3
71738.2
71675.4
71618
71562.5
71510.6
71460.9
71414.1
71369.6
71327.5
71287.6
71249.8
71214.2
71180.7
71149.4
71120.4
71093.8
71070
71049.2
71032
71018.7
71010.2
71007.2
71010.7
71021.7
71041.5
71071.3
71112.7
71167.3
71236.6
71322.6
71427.1
71552
71699.2
71871
72068.8
72295.5
72551.4
72840.8
73161.3
73521.3
73910.4
74349.4
74805.2
75334.9
75841.4
76486.1
76990.4
77810.5
78158.8
79310.8
79079.3
80935.7
79075.5
73109.7
72630.5
72678.9
72460
72417.2
72270.6
72205.6
72097.7
72027.6
71941.6
71873.7
71801.4
71738.3
71675.5
71618.1
71562.5
71510.6
71461
71414.2
71369.7
71327.6
71287.6
71249.9
71214.3
71180.8
71149.4
71120.4
71093.9
71070
71049.3
71032
71018.7
71010.2
71007.2
71010.7
71021.7
71041.4
71071.2
71112.6
71167
71236.3
71322.3
71426.6
71551.5
71698.5
71870.1
72067.7
72294.1
72549.7
72838.8
73158.8
73518.3
73906.7
74344.8
74799.6
75327.7
75833
76474.5
76977.4
77790.4
78138.3
79272.7
79049.9
80861.9
79056.5
73108.5
72631.1
72679
72460.1
72417.2
72270.6
72205.7
72097.8
72027.6
71941.7
71873.7
71801.4
71738.4
71675.6
71618.1
71562.6
71510.6
71461
71414.2
71369.7
71327.6
71287.7
71249.9
71214.3
71180.8
71149.5
71120.5
71093.9
71070.1
71049.3
71032
71018.7
71010.2
71007.2
71010.6
71021.6
71041.3
71071.1
71112.4
71166.8
71236
71321.8
71426.1
71550.8
71697.7
71869.1
72066.5
72292.5
72547.8
72836.4
73156
73514.8
73902.5
74339.6
74793.4
75319.8
75823.7
76461.7
76962.9
77768.3
78115.8
79231.5
79018
80783.4
79034.1
73107.3
72631.7
72679
72460.1
72417.3
72270.7
72205.7
72097.8
72027.7
71941.7
71873.8
71801.5
71738.4
71675.6
71618.2
71562.6
71510.7
71461.1
71414.3
71369.8
71327.6
71287.7
71250
71214.3
71180.8
71149.5
71120.5
71093.9
71070.1
71049.3
71032
71018.7
71010.2
71007.2
71010.6
71021.5
71041.2
71070.9
71112.1
71166.5
71235.6
71321.4
71425.5
71550
71696.8
71867.9
72065
72290.8
72545.7
72833.8
73152.8
73510.9
73897.8
74333.8
74786.5
75310.9
75813.2
76447.5
76946.9
77744.1
78091.2
79186.9
78983.2
80700.1
79008.1
73106
72632.4
72679.1
72460.1
72417.3
72270.7
72205.7
72097.8
72027.7
71941.8
71873.8
71801.5
71738.5
71675.7
71618.2
71562.7
71510.8
71461.1
71414.3
71369.8
71327.7
71287.8
71250
71214.4
71180.9
71149.5
71120.5
71094
71070.1
71049.3
71032
71018.7
71010.2
71007.1
71010.5
71021.4
71041
71070.7
71111.9
71166.2
71235.2
71320.8
71424.8
71549.2
71695.7
71866.6
72063.4
72288.8
72543.2
72830.9
73149.3
73506.6
73892.6
74327.3
74778.7
75301
75801.6
76431.9
76929.3
77717.6
78064.3
79138.9
78945.5
80612.1
78978.2
73104.6
72633.1
72679.1
72460.2
72417.3
72270.7
72205.8
72097.8
72027.8
71941.8
71873.9
71801.6
71738.5
71675.7
71618.3
71562.7
71510.8
71461.2
71414.4
71369.9
71327.7
71287.8
71250
71214.4
71180.9
71149.6
71120.6
71094
71070.1
71049.3
71032
71018.7
71010.1
71007.1
71010.4
71021.3
71040.9
71070.5
71111.6
71165.8
71234.7
71320.2
71424
71548.2
71694.5
71865.1
72061.6
72286.6
72540.5
72827.6
73145.3
73501.7
73886.8
74320.1
74770.1
75290.1
75788.8
76414.7
76909.9
77688.8
78034.9
79087.4
78904.6
80519.1
78944.1
73103.2
72633.7
72679.2
72460.2
72417.3
72270.7
72205.8
72097.9
72027.8
71941.9
71873.9
71801.6
71738.6
71675.8
71618.4
71562.8
71510.9
71461.2
71414.4
71369.9
71327.8
71287.9
71250.1
71214.5
71180.9
71149.6
71120.6
71094
71070.1
71049.3
71032
71018.7
71010.1
71007
71010.3
71021.2
71040.7
71070.2
71111.3
71165.4
71234.2
71319.5
71423.2
71547.1
71693.1
71863.5
72059.6
72284.1
72537.5
72823.9
73140.9
73496.3
73880.3
74312.1
74760.6
75278.1
75774.7
76395.8
76888.6
77657.4
78002.8
79032.1
78860.4
80421.1
78905.6
73101.8
72634.5
72679.2
72460.2
72417.4
72270.8
72205.8
72097.9
72027.8
71941.9
71874
71801.7
71738.6
71675.8
71618.4
71562.9
71510.9
71461.3
71414.5
71370
71327.8
71287.9
71250.1
71214.5
71181
71149.7
71120.6
71094
71070.2
71049.3
71032
71018.7
71010.1
71006.9
71010.2
71021
71040.5
71070
71110.9
71164.9
71233.6
71318.7
71422.2
71545.9
71691.7
71861.6
72057.3
72281.4
72534.2
72819.9
73136
73490.3
73873.1
74303.2
74750.1
75264.8
75759.1
76375.1
76865.3
77623.3
77968
78972.9
78812.6
80318.2
78862.3
73100.4
72635.2
72679.3
72460.3
72417.4
72270.8
72205.8
72097.9
72027.9
71941.9
71874
71801.7
71738.7
71675.9
71618.5
71562.9
71511
71461.3
71414.5
71370
71327.9
71287.9
71250.2
71214.5
71181
71149.7
71120.7
71094.1
71070.2
71049.4
71032
71018.7
71010
71006.9
71010.1
71020.9
71040.3
71069.7
71110.5
71164.4
71232.9
71317.9
71421.1
71544.6
71690
71859.6
72054.8
72278.3
72530.5
72815.3
73130.5
73483.7
73865.1
74293.4
74738.5
75250.1
75742
76352.4
76839.8
77586.5
77930.2
78909.7
78761
80210.1
78814
73098.8
72635.9
72679.3
72460.3
72417.4
72270.8
72205.9
72098
72027.9
71942
71874
71801.8
71738.7
71675.9
71618.5
71563
71511
71461.4
71414.6
71370.1
71327.9
71288
71250.2
71214.6
71181.1
71149.7
71120.7
71094.1
71070.2
71049.4
71032
71018.6
71010
71006.8
71010
71020.7
71040
71069.3
71110
71163.8
71232.1
71316.9
71419.9
71543.1
71688.1
71857.3
72052
72274.9
72526.4
72810.3
73124.5
73476.4
73856.3
74282.7
74725.6
75234.1
75723.2
76327.7
76812
77546.6
77889.3
78842.4
78705.5
80097
78760.4
73097.3
72636.7
72679.4
72460.4
72417.5
72270.9
72205.9
72098
72027.9
71942
71874.1
71801.8
71738.8
71676
71618.6
71563
71511.1
71461.4
71414.6
71370.1
71328
71288.1
71250.3
71214.6
71181.1
71149.8
71120.7
71094.1
71070.2
71049.4
71032
71018.6
71009.9
71006.7
71009.8
71020.5
71039.7
71068.9
71109.5
71163.1
71231.3
71315.9
71418.6
71541.4
71686.1
71854.8
72048.9
72271.2
72521.8
72804.8
73117.8
73468.3
73846.7
74270.8
74711.5
75216.4
75702.6
76300.8
76781.6
77503.5
77844.9
78770.7
78645.7
79978.7
78701.2
73095.7
72637.5
72679.4
72460.4
72417.5
72270.9
72205.9
72098
72027.9
71942
71874.1
71801.8
71738.8
71676
71618.6
71563
71511.1
71461.5
71414.7
71370.2
71328
71288.1
71250.3
71214.7
71181.2
71149.8
71120.8
71094.2
71070.3
71049.4
71032
71018.6
71009.8
71006.6
71009.7
71020.2
71039.4
71068.5
71109
71162.4
71230.3
71314.7
71417.1
71539.6
71683.8
71852
72045.5
72267
72516.8
72798.7
73110.5
73459.3
73836
74257.7
74696.1
75197.1
75680.1
76271.4
76748.6
77457.1
77797
78694.5
78581.4
79855.3
78636.1
73094
72638.3
72679.5
72460.4
72417.5
72270.9
72205.9
72098
72027.9
71942
71874.1
71801.9
71738.8
71676.1
71618.6
71563.1
71511.2
71461.5
71414.7
71370.2
71328.1
71288.1
71250.4
71214.7
71181.2
71149.9
71120.8
71094.2
71070.3
71049.4
71031.9
71018.5
71009.8
71006.4
71009.5
71019.9
71039
71068
71108.3
71161.5
71229.3
71313.4
71415.5
71537.5
71681.3
71848.9
72041.8
72262.4
72511.2
72792
73102.4
73449.5
73824.2
74243.4
74679.1
75176
75655.4
76239.5
76712.7
77407.1
77745.2
78613.6
78512.3
79726.7
78564.9
73092.3
72639.2
72679.5
72460.5
72417.5
72270.9
72206
72098
72028
71942
71874.1
71801.9
71738.8
71676.1
71618.7
71563.1
71511.2
71461.6
71414.8
71370.2
71328.1
71288.2
71250.4
71214.8
71181.2
71149.9
71120.8
71094.2
71070.3
71049.4
71031.9
71018.5
71009.7
71006.3
71009.3
71019.6
71038.6
71067.5
71107.6
71160.6
71228.2
71311.9
71413.6
71535.3
71678.5
71845.5
72037.6
72257.4
72505.1
72784.5
73093.4
73438.7
73811.3
74227.7
74660.5
75152.9
75628.5
76204.9
76673.6
77353.4
77689.4
78527.9
78438.2
79592.9
78487
73090.6
72640
72679.6
72460.5
72417.6
72271
72206
72098.1
72028
71942.1
71874.1
71801.9
71738.9
71676.1
71618.7
71563.1
71511.2
71461.6
71414.8
71370.3
71328.2
71288.2
71250.5
71214.8
71181.3
71149.9
71120.9
71094.2
71070.3
71049.4
71031.9
71018.4
71009.5
71006.1
71009
71019.3
71038.2
71066.9
71106.8
71159.6
71226.9
71310.3
71411.6
71532.8
71675.5
71841.8
72033
72251.8
72498.4
72776.4
73083.6
73426.8
73797.2
74210.5
74640.1
75127.7
75599.1
76167.3
76631.3
77295.6
77629.2
78437.2
78358.8
79453.8
78402.3
73088.7
72640.9
72679.7
72460.6
72417.6
72271
72206
72098.1
72028
71942.1
71874.2
71801.9
71738.9
71676.1
71618.7
71563.2
71511.3
71461.6
71414.8
71370.3
71328.2
71288.2
71250.5
71214.8
71181.3
71150
71120.9
71094.2
71070.3
71049.3
71031.8
71018.3
71009.4
71005.9
71008.8
71018.9
71037.7
71066.2
71106
71158.5
71225.5
71308.5
71409.4
71530.1
71672.1
71837.6
72028
72245.6
72490.9
72767.4
73072.9
73413.8
73781.6
74191.6
74617.8
75100.3
75567.1
76126.6
76585.4
77233.7
77564.4
78341.2
78273.7
79309.4
78310.4
73086.9
72641.8
72679.7
72460.6
72417.7
72271
72206
72098.1
72028
71942.1
71874.2
71801.9
71738.9
71676.1
71618.7
71563.2
71511.3
71461.7
71414.9
71370.4
71328.2
71288.3
71250.5
71214.9
71181.3
71150
71120.9
71094.2
71070.3
71049.3
71031.8
71018.2
71009.3
71005.7
71008.5
71018.5
71037.1
71065.5
71105
71157.3
71223.9
71306.6
71407
71527.1
71668.4
71833.1
72022.5
72238.9
72482.8
72757.6
73061
73399.6
73764.6
74171
74593.4
75070.3
75532.3
76082.5
76535.6
77167.2
77494.7
78239.9
78182.7
79159.5
78210.9
73085
72642.8
72679.8
72460.7
72417.7
72271.1
72206.1
72098.1
72028.1
71942.1
71874.2
71801.9
71738.9
71676.1
71618.7
71563.2
71511.3
71461.7
71414.9
71370.4
71328.3
71288.3
71250.6
71214.9
71181.4
71150
71120.9
71094.2
71070.3
71049.3
71031.7
71018.1
71009.1
71005.5
71008.1
71018.1
71036.5
71064.7
71104
71156
71222.2
71304.5
71404.4
71523.8
71664.3
71828.1
72016.4
72231.5
72473.9
72746.8
73048.1
73384
73746
74148.5
74566.8
75037.7
75494.3
76034.7
76481.8
77096.1
77419.8
78132.9
78085.4
79004.2
78103.4
73083
72643.7
72679.9
72460.7
72417.7
72271.1
72206.1
72098.2
72028.1
71942.1
71874.2
71802
71738.9
71676.2
71618.8
71563.2
71511.3
71461.7
71414.9
71370.4
71328.3
71288.4
71250.6
71214.9
71181.4
71150
71120.9
71094.2
71070.2
71049.2
71031.6
71018
71008.9
71005.2
71007.7
71017.6
71035.8
71063.8
71102.9
71154.5
71220.4
71302.2
71401.5
71520.2
71659.9
71822.7
72009.8
72223.5
72464.2
72735
73034
73366.9
73725.7
74123.9
74537.8
75002.3
75453.1
75983.2
76423.5
77019.9
77339.3
78020.1
77981.5
78843.2
77987.7
73081
72644.7
72679.9
72460.8
72417.8
72271.2
72206.1
72098.2
72028.1
71942.2
71874.2
71802
71738.9
71676.2
71618.8
71563.2
71511.3
71461.7
71414.9
71370.4
71328.3
71288.4
71250.6
71215
71181.4
71150
71120.9
71094.2
71070.2
71049.2
71031.5
71017.8
71008.7
71004.9
71007.3
71017
71035.1
71062.8
71101.6
71152.9
71218.4
71299.6
71398.3
71516.3
71655.1
71816.8
72002.6
72214.7
72453.5
72722.2
73018.6
73348.3
73703.6
74097.2
74506.2
74963.9
75408.4
75927.5
76360.6
76938.5
77252.9
77901.1
77870.6
78676.4
77863.6
73078.9
72645.7
72680
72460.9
72417.8
72271.2
72206.2
72098.2
72028.1
71942.2
71874.2
71802
71739
71676.2
71618.8
71563.2
71511.3
71461.7
71414.9
71370.4
71328.3
71288.4
71250.6
71214.9
71181.4
71150.1
71121
71094.2
71070.2
71049.1
71031.4
71017.7
71008.5
71004.6
71006.9
71016.4
71034.3
71061.7
71100.2
71151.2
71216.1
71296.8
71394.8
71512
71649.8
71810.3
71994.7
72205.1
72442
72708.2
73001.8
73328.1
73679.5
74068.1
74471.9
74922.1
75359.8
75867.3
76292.6
76851.4
77160.2
77775.7
77752.4
78503.6
77730.7
73076.8
72646.7
72680
72460.9
72417.9
72271.2
72206.2
72098.3
72028.1
71942.2
71874.3
71802
71739
71676.2
71618.8
71563.3
71511.4
71461.7
71414.9
71370.4
71328.3
71288.4
71250.6
71215
71181.4
71150
71120.9
71094.2
71070.2
71049.1
71031.3
71017.5
71008.2
71004.2
71006.3
71015.7
71033.4
71060.6
71098.7
71149.2
71213.7
71293.7
71391
71507.2
71644
71803.2
71986.1
72194.7
72429.3
72693
72983.5
73306.1
73653.3
74036.5
74434.6
74876.9
75307.2
75802.5
76219.3
76758.3
77060.8
77643.6
77626.5
78324.6
77588.8
73074.6
72647.8
72680.1
72461
72417.9
72271.3
72206.2
72098.3
72028.2
71942.2
71874.3
71802
71739
71676.2
71618.8
71563.3
71511.4
71461.8
71415
71370.5
71328.3
71288.4
71250.6
71215
71181.4
71150
71120.9
71094.1
71070
71048.9
71031.2
71017.3
71007.9
71003.8
71005.8
71014.9
71032.3
71059.2
71097
71147.1
71211
71290.4
71386.8
71502
71637.6
71795.4
71976.6
72183.2
72415.5
72676.3
72963.6
73282.2
73624.8
74002.3
74394.1
74827.9
75250.2
75732.7
76140.2
76659
76954.4
77504.4
77492.5
78139
77437.7
73072.4
72648.9
72680.2
72461.1
72418
72271.3
72206.3
72098.3
72028.2
71942.3
71874.3
71802.1
71739
71676.2
71618.8
71563.3
71511.4
71461.8
71415
71370.5
71328.4
71288.4
71250.6
71215
71181.4
71150
71120.8
71094.1
71070
71048.8
71031
71017
71007.5
71003.3
71005.2
71014.2
71031.3
71057.9
71095.2
71144.8
71208
71286.6
71382.1
71496.3
71630.6
71786.9
71966.2
72170.7
72400.4
72658.1
72941.8
73256.1
73593.8
73965.1
74350.3
74775.1
75188.6
75657.5
76055
76552.9
76840.4
77357.7
77349.9
77946.4
77277.3
73070.1
72650
72680.2
72461.1
72418
72271.4
72206.3
72098.3
72028.2
71942.3
71874.3
71802.1
71739
71676.3
71618.8
71563.3
71511.4
71461.8
71415
71370.5
71328.4
71288.4
71250.6
71215
71181.4
71150
71120.8
71094
71069.9
71048.7
71030.8
71016.8
71007.2
71002.8
71004.5
71013.2
71030
71056.3
71093.2
71142.2
71204.9
71282.7
71377.2
71490.2
71623.1
71777.6
71954.9
72156.9
72383.9
72638.2
72918.1
73227.7
73560
73924.7
74302.8
74717.8
75122.1
75576.8
75963.4
76439.9
76718.6
77203.2
77198.4
77746.4
77107.7
73067.8
72651.1
72680.3
72461.2
72418
72271.4
72206.3
72098.4
72028.3
71942.3
71874.4
71802.1
71739.1
71676.3
71618.9
71563.3
71511.4
71461.8
71415
71370.5
71328.4
71288.4
71250.7
71215
71181.4
71150
71120.8
71094
71069.8
71048.5
71030.6
71016.5
71006.8
71002.3
71003.8
71012.3
71028.8
71054.7
71091.1
71139.5
71201.4
71278.3
71371.7
71483.5
71614.8
71767.6
71942.7
72142.1
72366
72616.7
72892.2
73196.6
73523.2
73880.8
74251.1
74656
75050.4
75490.1
75865.2
76319.6
76588.4
77040.5
77037.5
77538.4
76928.8
73065.4
72652.2
72680.4
72461.3
72418.1
72271.4
72206.4
72098.4
72028.3
71942.3
71874.4
71802.1
71739.1
71676.3
71618.9
71563.3
71511.4
71461.8
71415
71370.5
71328.4
71288.4
71250.7
71215
71181.4
71150
71120.8
71093.9
71069.7
71048.4
71030.4
71016.2
71006.4
71001.7
71003
71011.2
71027.4
71052.9
71088.8
71136.6
71197.7
71273.7
71366
71476.3
71606
71756.7
71929.4
72126
72346.6
72593.3
72864.3
73163.2
73483.5
73833.2
74195.1
74589.3
74972.9
75397.1
75759.8
76191.5
76449.7
76869.3
76866.9
77321.7
76740.8
73063
72653.4
72680.4
72461.3
72418.1
72271.5
72206.4
72098.5
72028.3
71942.4
71874.4
71802.2
71739.1
71676.3
71618.9
71563.4
71511.4
71461.8
71415
71370.5
71328.4
71288.4
71250.7
71215
71181.4
71149.9
71120.7
71093.9
71069.6
71048.2
71030.2
71015.9
71005.9
71001.1
71002.2
71010.1
71026
71051
71086.4
71133.5
71193.8
71268.8
71359.9
71468.7
71596.6
71745.2
71915.4
72109
72325.9
72568.3
72834.2
73127.1
73440.6
73782.1
74134.9
74517.4
74889.5
75297.5
75646.8
76055.6
76302.2
76689.4
76686.6
77096.2
76544
73060.5
72654.6
72680.5
72461.4
72418.2
72271.5
72206.4
72098.5
72028.3
71942.4
71874.4
71802.2
71739.1
71676.3
71618.9
71563.4
71511.5
71461.8
71415
71370.5
71328.4
71288.5
71250.7
71215
71181.4
71149.9
71120.7
71093.8
71069.5
71048.1
71029.9
71015.5
71005.4
71000.4
71001.3
71008.9
71024.4
71049
71083.8
71130.2
71189.6
71263.6
71353.4
71460.7
71586.7
71733
71900.5
72090.9
72304
72541.8
72802.4
73088.8
73394.8
73727.2
74070.3
74440.3
74800
75191
75526.2
75911.6
76145.6
76500.7
76496.2
76861.4
76338.4
73058
72655.8
72680.6
72461.5
72418.2
72271.6
72206.5
72098.5
72028.4
71942.4
71874.5
71802.2
71739.1
71676.4
71618.9
71563.4
71511.5
71461.9
71415.1
71370.5
71328.4
71288.5
71250.7
71215
71181.4
71149.9
71120.6
71093.7
71069.4
71047.9
71029.7
71015.1
71004.9
70999.7
71000.3
71007.7
71022.8
71046.8
71081
71126.7
71185.2
71257.9
71346.4
71452
71576
71720
71884.7
72071.6
72280.8
72513.8
72768.7
73048.3
73346.5
73669.3
74001.7
74358.4
74704.6
75077.6
75397.6
75759.1
75979.8
76303.4
76296.4
76617.2
76123.6
73055.4
72657
72680.6
72461.6
72418.3
72271.6
72206.5
72098.6
72028.4
71942.5
71874.5
71802.2
71739.2
71676.4
71619
71563.4
71511.5
71461.9
71415.1
71370.6
71328.4
71288.5
71250.7
71215
71181.3
71149.9
71120.6
71093.6
71069.2
71047.7
71029.4
71014.7
71004.4
70999
70999.3
71006.3
71021
71044.5
71078
71122.9
71180.4
71251.9
71338.9
71442.8
71564.7
71706.1
71867.8
72051.1
72256
72483.9
72732.9
73005.4
73295.5
73608.3
73929.6
74272.3
74604.1
74958.1
75261.4
75598.4
75804.4
76096.7
76086.7
76364.6
75900.5
73052.8
72658.2
72680.7
72461.7
72418.4
72271.7
72206.6
72098.6
72028.4
71942.5
71874.5
71802.3
71739.2
71676.4
71619
71563.4
71511.5
71461.9
71415.1
71370.6
71328.4
71288.5
71250.7
71215
71181.3
71149.8
71120.5
71093.5
71069.1
71047.5
71029.1
71014.3
71003.8
70998.1
70998.2
71004.9
71019.1
71042
71074.9
71118.8
71175.2
71245.5
71330.9
71432.9
71552.5
71691.2
71849.7
72029.2
72229.6
72452.1
72694.9
72959.9
73241.4
73543.8
73853.6
74182
74498.9
74833.2
75118.9
75430.3
75620.2
75881.2
75866.5
76103.3
75669
73050.1
72659.5
72680.8
72461.8
72418.4
72271.7
72206.6
72098.6
72028.5
71942.5
71874.5
71802.3
71739.2
71676.4
71619
71563.5
71511.5
71461.9
71415.1
71370.6
71328.5
71288.5
71250.7
71215
71181.3
71149.8
71120.4
71093.4
71068.9
71047.3
71028.7
71013.8
71003.1
70997.3
70997
71003.3
71017.1
71039.4
71071.4
71114.5
71169.8
71238.6
71322.4
71422.3
71539.6
71675.4
71830.4
72005.9
72201.5
72418.4
72654.5
72911.7
73184.2
73475.7
73773.5
74087.1
74388.6
74703.1
74970.5
75256.2
75428.6
75658
75637
75832.7
75429
73047.4
72660.7
72680.8
72461.9
72418.5
72271.8
72206.6
72098.7
72028.5
71942.5
71874.6
71802.3
71739.2
71676.5
71619
71563.5
71511.6
71461.9
71415.1
71370.6
71328.5
71288.5
71250.7
71214.9
71181.3
71149.7
71120.4
71093.3
71068.8
71047
71028.4
71013.4
71002.5
70996.3
70995.8
71001.6
71014.9
71036.5
71067.8
71109.8
71163.9
71231.3
71313.2
71411
71525.7
71658.5
71809.9
71981.1
72171.6
72382.5
72611.7
72860.5
73123.6
73403.8
73689.1
73987.5
74273.1
74567.5
74816.3
75076.4
75230.5
75428.6
75399.4
75554.1
75181.3
73044.7
72662
72680.9
72462
72418.5
72271.8
72206.7
72098.7
72028.5
71942.6
71874.6
71802.3
71739.3
71676.5
71619
71563.5
71511.6
71462
71415.1
71370.6
71328.5
71288.5
71250.7
71214.9
71181.3
71149.7
71120.3