/*--------------------------------*- C++ -*----------------------------------*\
| =========                 |                                                 |
| \\      /  F ield         | OpenFOAM: The Open Source CFD Toolbox           |
|  \\    /   O peration     | Version:  v1906                                 |
|   \\  /    A nd           | Web:      www.OpenFOAM.com                      |
|    \\/     M anipulation  |                                                 |
\*---------------------------------------------------------------------------*/
FoamFile
{
    version     2.0;
    format      ascii;
    class       surfaceScalarField;
    location    "0.3";
    object      phi;
}
// * * * * * * * * * * * * * * * * * * * * * * * * * * * * * * * * * * * * * //

dimensions      [0 3 -1 0 0 0 0];
oriented        oriented;


internalField   nonuniform List<scalar> 
159400
(
2.76245e-09
2.4006e-09
2.32253e-09
4.39921e-10
2.2334e-09
8.91262e-11
2.16737e-09
6.60267e-11
2.11391e-09
5.34652e-11
2.07295e-09
4.09603e-11
2.04077e-09
3.21815e-11
2.01477e-09
2.60003e-11
1.99327e-09
2.14977e-11
1.97521e-09
1.80586e-11
1.95981e-09
1.54005e-11
1.94653e-09
1.32767e-11
1.93496e-09
1.15715e-11
1.9248e-09
1.01641e-11
1.9158e-09
8.99642e-12
1.90779e-09
8.01029e-12
1.90062e-09
7.17435e-12
1.89416e-09
6.45711e-12
1.88832e-09
5.8394e-12
1.88301e-09
5.30426e-12
1.87817e-09
4.84015e-12
1.87374e-09
4.43696e-12
1.86965e-09
4.08947e-12
1.86585e-09
3.79356e-12
1.86231e-09
3.54725e-12
1.85896e-09
3.3503e-12
1.85575e-09
3.20547e-12
1.85263e-09
3.11758e-12
1.84954e-09
3.09131e-12
1.84641e-09
3.1342e-12
1.84315e-09
3.25705e-12
1.83968e-09
3.47086e-12
1.83589e-09
3.78708e-12
1.83167e-09
4.21924e-12
1.82689e-09
4.78258e-12
1.8214e-09
5.49261e-12
1.81503e-09
6.36458e-12
1.80762e-09
7.41501e-12
1.79896e-09
8.6611e-12
1.78884e-09
1.01202e-11
1.77703e-09
1.18092e-11
1.76328e-09
1.37457e-11
1.74734e-09
1.59471e-11
1.7289e-09
1.84359e-11
1.70767e-09
2.12293e-11
1.68332e-09
2.43556e-11
1.65549e-09
2.78291e-11
1.62379e-09
3.16975e-11
1.58783e-09
3.59632e-11
1.54711e-09
4.07191e-11
1.50119e-09
4.59198e-11
1.44939e-09
5.17931e-11
1.39126e-09
5.81309e-11
1.32571e-09
6.55529e-11
1.2524e-09
7.33132e-11
1.16914e-09
8.32579e-11
1.07633e-09
9.28077e-11
9.68277e-10
1.08054e-10
8.4584e-10
1.22437e-10
6.91912e-10
1.53928e-10
5.26857e-10
1.65055e-10
2.97689e-10
2.29169e-10
1.39721e-10
1.57967e-10
-1.26571e-10
2.66292e-10
1.68986e-10
-2.95557e-10
3.78669e-09
3.98244e-09
3.26351e-09
9.63095e-10
3.11566e-09
2.36984e-10
3.0332e-09
1.48484e-10
2.96926e-09
1.17408e-10
2.91927e-09
9.09464e-11
2.87971e-09
7.17365e-11
2.8478e-09
5.79173e-11
2.82144e-09
4.78523e-11
2.79934e-09
4.01624e-11
2.78051e-09
3.4234e-11
2.76429e-09
2.94961e-11
2.75016e-09
2.56977e-11
2.73776e-09
2.25634e-11
2.72679e-09
1.99657e-11
2.71703e-09
1.77723e-11
2.70829e-09
1.59142e-11
2.70043e-09
1.43202e-11
2.69332e-09
1.29479e-11
2.68686e-09
1.17591e-11
2.68098e-09
1.07282e-11
2.67558e-09
9.83252e-12
2.67061e-09
9.06014e-12
2.666e-09
8.40171e-12
2.6617e-09
7.85269e-12
2.65763e-09
7.41226e-12
2.65375e-09
7.08593e-12
2.64999e-09
6.88403e-12
2.64626e-09
6.81678e-12
2.6425e-09
6.9001e-12
2.6386e-09
7.15707e-12
2.63445e-09
7.61163e-12
2.62995e-09
8.28853e-12
2.62496e-09
9.21688e-12
2.61931e-09
1.04295e-11
2.61284e-09
1.19601e-11
2.60536e-09
1.38418e-11
2.59667e-09
1.61101e-11
2.58653e-09
1.88022e-11
2.57469e-09
2.19562e-11
2.56089e-09
2.56086e-11
2.54484e-09
2.97986e-11
2.52622e-09
3.45639e-11
2.5047e-09
3.99539e-11
2.47993e-09
4.60072e-11
2.45149e-09
5.2788e-11
2.41899e-09
6.03286e-11
2.38196e-09
6.8737e-11
2.3399e-09
7.80207e-11
2.29222e-09
8.83931e-11
2.23839e-09
9.97563e-11
2.17755e-09
1.12629e-10
2.10913e-09
1.26556e-10
2.03174e-09
1.42938e-10
1.94492e-09
1.60137e-10
1.84588e-09
1.82292e-10
1.73495e-09
2.03743e-10
1.60507e-09
2.37929e-10
1.46017e-09
2.6734e-10
1.27984e-09
3.3426e-10
1.08398e-09
3.60914e-10
7.97363e-10
5.15785e-10
5.51813e-10
4.03517e-10
1.98009e-11
7.98304e-10
4.35806e-10
-2.47019e-10
4.35408e-09
5.21055e-09
3.80658e-09
1.5106e-09
3.61888e-09
4.24684e-10
3.52259e-09
2.44769e-10
3.45176e-09
1.88241e-10
3.39646e-09
1.46241e-10
3.35258e-09
1.1562e-10
3.31717e-09
9.33251e-11
3.28795e-09
7.7072e-11
3.26346e-09
6.46498e-11
3.24261e-09
5.50872e-11
3.22466e-09
4.74447e-11
3.20904e-09
4.13234e-11
3.19533e-09
3.62731e-11
3.1832e-09
3.20905e-11
3.17242e-09
2.85595e-11
3.16276e-09
2.55693e-11
3.15408e-09
2.30048e-11
3.14623e-09
2.07974e-11
3.1391e-09
1.88854e-11
3.1326e-09
1.72273e-11
3.12665e-09
1.57866e-11
3.12116e-09
1.45439e-11
3.11608e-09
1.34836e-11
3.11134e-09
1.25985e-11
3.10686e-09
1.18868e-11
3.10259e-09
1.13567e-11
3.09845e-09
1.10245e-11
3.09436e-09
1.09061e-11
3.09023e-09
1.10265e-11
3.08597e-09
1.14217e-11
3.08145e-09
1.21295e-11
3.07655e-09
1.3189e-11
3.07112e-09
1.46458e-11
3.065e-09
1.65517e-11
3.058e-09
1.89597e-11
3.04992e-09
2.19221e-11
3.04054e-09
2.54948e-11
3.0296e-09
2.97363e-11
3.01685e-09
3.47064e-11
3.002e-09
4.04632e-11
2.98473e-09
4.70686e-11
2.96471e-09
5.45815e-11
2.94158e-09
6.30803e-11
2.91496e-09
7.2626e-11
2.88443e-09
8.33208e-11
2.84954e-09
9.52159e-11
2.8098e-09
1.08483e-10
2.76468e-09
1.23136e-10
2.71356e-09
1.39514e-10
2.65585e-09
1.57465e-10
2.59067e-09
1.77812e-10
2.51738e-09
1.99845e-10
2.43455e-09
2.25773e-10
2.34164e-09
2.53043e-10
2.23578e-09
2.88149e-10
2.11723e-09
3.22298e-10
1.9788e-09
3.76354e-10
1.82477e-09
4.21372e-10
1.63424e-09
5.24791e-10
1.42726e-09
5.6789e-10
1.12634e-09
8.16714e-10
8.47935e-10
6.81918e-10
2.51864e-10
1.39438e-09
7.92632e-10
-1.04962e-10
4.82667e-09
6.18823e-09
4.2561e-09
2.08117e-09
4.02971e-09
6.51071e-10
3.91726e-09
3.5722e-10
3.83893e-09
2.66577e-10
3.77848e-09
2.06685e-10
3.73051e-09
1.6359e-10
3.69181e-09
1.32024e-10
3.6599e-09
1.08987e-10
3.63317e-09
9.13754e-11
3.61043e-09
7.78319e-11
3.59086e-09
6.701e-11
3.57384e-09
5.83482e-11
3.55891e-09
5.12039e-11
3.54571e-09
4.52903e-11
3.53397e-09
4.02993e-11
3.52346e-09
3.60742e-11
3.51402e-09
3.24513e-11
3.50548e-09
2.93336e-11
3.49773e-09
2.66332e-11
3.49067e-09
2.42916e-11
3.4842e-09
2.22569e-11
3.47824e-09
2.05012e-11
3.47272e-09
1.90023e-11
3.46757e-09
1.77494e-11
3.46272e-09
1.67399e-11
3.45809e-09
1.59846e-11
3.45361e-09
1.55054e-11
3.44919e-09
1.53248e-11
3.44474e-09
1.54768e-11
3.44015e-09
1.60111e-11
3.4353e-09
1.698e-11
3.43005e-09
1.84375e-11
3.42425e-09
2.04469e-11
3.41772e-09
2.30793e-11
3.41027e-09
2.64087e-11
3.40169e-09
3.05072e-11
3.39173e-09
3.54522e-11
3.38014e-09
4.13242e-11
3.36664e-09
4.82063e-11
3.35093e-09
5.61787e-11
3.33267e-09
6.5327e-11
3.31152e-09
7.57327e-11
3.28709e-09
8.75039e-11
3.259e-09
1.00725e-10
3.22678e-09
1.15538e-10
3.18998e-09
1.32012e-10
3.14808e-09
1.50388e-10
3.10053e-09
1.70681e-10
3.04668e-09
1.93365e-10
2.98592e-09
2.1823e-10
2.91732e-09
2.46412e-10
2.84022e-09
2.7694e-10
2.75314e-09
3.1285e-10
2.65553e-09
3.50659e-10
2.54443e-09
3.99244e-10
2.42006e-09
4.46664e-10
2.27522e-09
5.21195e-10
2.11388e-09
5.82719e-10
1.9153e-09
7.23366e-10
1.69895e-09
7.84242e-10
1.38931e-09
1.12635e-09
1.08945e-09
9.81784e-10
4.66119e-10
2.0177e-09
1.20469e-09
5.40577e-11
5.25635e-09
6.96723e-09
4.67349e-09
2.66402e-09
4.4067e-09
9.17866e-10
4.27539e-09
4.88526e-10
4.18836e-09
3.5361e-10
4.12242e-09
2.72619e-10
4.07025e-09
2.15764e-10
4.02819e-09
1.74082e-10
3.99354e-09
1.43641e-10
3.96454e-09
1.20369e-10
3.93989e-09
1.02487e-10
3.91869e-09
8.82041e-11
3.90026e-09
7.67793e-11
3.88411e-09
6.73597e-11
3.86983e-09
5.95668e-11
3.85714e-09
5.29919e-11
3.84579e-09
4.74277e-11
3.83558e-09
4.26579e-11
3.82636e-09
3.8554e-11
3.81799e-09
3.49999e-11
3.81037e-09
3.1918e-11
3.80338e-09
2.924e-11
3.79695e-09
2.69284e-11
3.791e-09
2.49537e-11
3.78545e-09
2.33011e-11
3.78022e-09
2.19668e-11
3.77525e-09
2.09639e-11
3.77043e-09
2.03204e-11
3.76569e-09
2.00649e-11
3.76093e-09
2.02412e-11
3.75602e-09
2.0913e-11
3.75086e-09
2.21475e-11
3.74528e-09
2.40147e-11
3.73913e-09
2.65956e-11
3.73223e-09
2.99822e-11
3.72437e-09
3.42696e-11
3.71532e-09
3.9551e-11
3.70485e-09
4.59258e-11
3.69268e-09
5.34978e-11
3.67851e-09
6.23738e-11
3.66203e-09
7.2657e-11
3.6429e-09
8.44578e-11
3.62075e-09
9.78807e-11
3.59519e-09
1.13064e-10
3.5658e-09
1.30118e-10
3.53211e-09
1.49222e-10
3.49366e-09
1.70469e-10
3.44988e-09
1.94164e-10
3.40023e-09
2.2033e-10
3.34403e-09
2.49573e-10
3.28063e-09
2.81627e-10
3.20909e-09
3.17947e-10
3.12874e-09
3.57296e-10
3.03804e-09
4.03547e-10
2.93642e-09
4.52282e-10
2.82089e-09
5.14772e-10
2.69162e-09
5.75934e-10
2.54141e-09
6.71401e-10
2.374e-09
7.50133e-10
2.16888e-09
9.28481e-10
1.94471e-09
1.00842e-09
1.62925e-09
1.44181e-09
1.31383e-09
1.2972e-09
6.92733e-10
2.6388e-09
1.66687e-09
2.3056e-10
5.66368e-09
7.57911e-09
5.08068e-09
3.24702e-09
4.7719e-09
1.22665e-09
4.61881e-09
6.41617e-10
4.52159e-09
4.50824e-10
4.4496e-09
3.44618e-10
4.39296e-09
2.72402e-10
4.34738e-09
2.19659e-10
4.30987e-09
1.8115e-10
4.27852e-09
1.51717e-10
4.25189e-09
1.29118e-10
4.22902e-09
1.1108e-10
4.20914e-09
9.66594e-11
4.19172e-09
8.47754e-11
4.17634e-09
7.49488e-11
4.16267e-09
6.66615e-11
4.15045e-09
5.96504e-11
4.13946e-09
5.36421e-11
4.12954e-09
4.84736e-11
4.12054e-09
4.39983e-11
4.11234e-09
4.01178e-11
4.10484e-09
3.67457e-11
4.09793e-09
3.38342e-11
4.09154e-09
3.13454e-11
4.08558e-09
2.92599e-11
4.07998e-09
2.75726e-11
4.07464e-09
2.62988e-11
4.06949e-09
2.5472e-11
4.06443e-09
2.51277e-11
4.05935e-09
2.53195e-11
4.05414e-09
2.61253e-11
4.04866e-09
2.7628e-11
4.04276e-09
2.99136e-11
4.03627e-09
3.30821e-11
4.02901e-09
3.72464e-11
4.02075e-09
4.2524e-11
4.01127e-09
4.90297e-11
4.00031e-09
5.68859e-11
3.98759e-09
6.62199e-11
3.9728e-09
7.71633e-11
3.95562e-09
8.9843e-11
3.93568e-09
1.04395e-10
3.91261e-09
1.20947e-10
3.88601e-09
1.3967e-10
3.85543e-09
1.60696e-10
3.8204e-09
1.84249e-10
3.78043e-09
2.1044e-10
3.73495e-09
2.39644e-10
3.68339e-09
2.71889e-10
3.62504e-09
3.07918e-10
3.55927e-09
3.47406e-10
3.48508e-09
3.9213e-10
3.40179e-09
4.40587e-10
3.30785e-09
4.97494e-10
3.20264e-09
5.57491e-10
3.08316e-09
6.34253e-10
2.94953e-09
7.09559e-10
2.79458e-09
8.26353e-10
2.62187e-09
9.22847e-10
2.41105e-09
1.1393e-09
2.18014e-09
1.23933e-09
1.86111e-09
1.76084e-09
1.53441e-09
1.62391e-09
9.30965e-10
3.24224e-09
2.15602e-09
4.41807e-10
6.05855e-09
8.04586e-09
5.48768e-09
3.81789e-09
5.13729e-09
1.57704e-09
4.95884e-09
8.20065e-10
4.84976e-09
5.59907e-10
4.77093e-09
4.2345e-10
4.70945e-09
3.33883e-10
4.66012e-09
2.68991e-10
4.61958e-09
2.21682e-10
4.58575e-09
1.8555e-10
4.55704e-09
1.5783e-10
4.5324e-09
1.35721e-10
4.511e-09
1.18057e-10
4.49227e-09
1.03508e-10
4.47573e-09
9.14845e-11
4.46104e-09
8.13493e-11
4.44792e-09
7.27777e-11
4.43612e-09
6.54348e-11
4.42548e-09
5.91197e-11
4.41582e-09
5.36526e-11
4.40703e-09
4.89123e-11
4.39898e-09
4.47929e-11
4.39158e-09
4.12354e-11
4.38473e-09
3.81923e-11
4.37835e-09
3.56392e-11
4.37236e-09
3.35693e-11
4.36666e-09
3.19998e-11
4.36116e-09
3.09697e-11
4.35576e-09
3.05212e-11
4.35037e-09
3.07181e-11
4.34484e-09
3.16529e-11
4.33904e-09
3.34246e-11
4.33282e-09
3.61357e-11
4.326e-09
3.99054e-11
4.31837e-09
4.48687e-11
4.30973e-09
5.11659e-11
4.29983e-09
5.89342e-11
4.28839e-09
6.83193e-11
4.27514e-09
7.94733e-11
4.25975e-09
9.25528e-11
4.24188e-09
1.07709e-10
4.22118e-09
1.25105e-10
4.19723e-09
1.44891e-10
4.16963e-09
1.67272e-10
4.13792e-09
1.92403e-10
4.10162e-09
2.20551e-10
4.06021e-09
2.51848e-10
4.01312e-09
2.86739e-10
3.95975e-09
3.25256e-10
3.89939e-09
3.68281e-10
3.83136e-09
4.15429e-10
3.75469e-09
4.68805e-10
3.66864e-09
5.26633e-10
3.57165e-09
5.94484e-10
3.46309e-09
6.66052e-10
3.33992e-09
7.5742e-10
3.20225e-09
8.47233e-10
3.04289e-09
9.85717e-10
2.86529e-09
1.10044e-09
2.64924e-09
1.35535e-09
2.41227e-09
1.4763e-09
2.09117e-09
2.08194e-09
1.75607e-09
1.95901e-09
1.17663e-09
3.82167e-09
2.65286e-09
6.79795e-10
6.45016e-09
8.3807e-09
5.89912e-09
4.36893e-09
5.50955e-09
1.96661e-09
5.30223e-09
1.02739e-09
5.17948e-09
6.82655e-10
5.09286e-09
5.10066e-10
5.02605e-09
4.007e-10
4.97265e-09
3.22385e-10
4.92888e-09
2.65457e-10
4.89239e-09
2.22037e-10
4.86147e-09
1.88755e-10
4.83495e-09
1.62235e-10
4.81195e-09
1.41061e-10
4.79182e-09
1.23633e-10
4.77407e-09
1.09238e-10
4.75831e-09
9.711e-11
4.74423e-09
8.68571e-11
4.73159e-09
7.80775e-11
4.72018e-09
7.05287e-11
4.70984e-09
6.3995e-11
4.70042e-09
5.83303e-11
4.6918e-09
5.34074e-11
4.68388e-09
4.91552e-11
4.67656e-09
4.55154e-11
4.66974e-09
4.2458e-11
4.66334e-09
3.99741e-11
4.65726e-09
3.80824e-11
4.6514e-09
3.68274e-11
4.64566e-09
3.62579e-11
4.63993e-09
3.64482e-11
4.63408e-09
3.75057e-11
4.62796e-09
3.95457e-11
4.6214e-09
4.26878e-11
4.61424e-09
4.7071e-11
4.60625e-09
5.28529e-11
4.59722e-09
6.01972e-11
4.58689e-09
6.92643e-11
4.57499e-09
8.0224e-11
4.56121e-09
9.32534e-11
4.54523e-09
1.08535e-10
4.52669e-09
1.26246e-10
4.50522e-09
1.46574e-10
4.48042e-09
1.69696e-10
4.45184e-09
1.95848e-10
4.41903e-09
2.25212e-10
4.38148e-09
2.58097e-10
4.33868e-09
2.94656e-10
4.29001e-09
3.35404e-10
4.23489e-09
3.80379e-10
4.17257e-09
4.30601e-10
4.10237e-09
4.85628e-10
4.02328e-09
5.47892e-10
3.93457e-09
6.15345e-10
3.83464e-09
6.94415e-10
3.72284e-09
7.77845e-10
3.59612e-09
8.84141e-10
3.45455e-09
9.88805e-10
3.29092e-09
1.14935e-09
3.10863e-09
1.28273e-09
2.88783e-09
1.57615e-09
2.64526e-09
1.71887e-09
2.32267e-09
2.40454e-09
1.98098e-09
2.3007e-09
1.42708e-09
4.37557e-09
3.14697e-09
9.32976e-10
6.8344e-09
8.60134e-09
6.31444e-09
4.88889e-09
5.89257e-09
2.38848e-09
5.65398e-09
1.26598e-09
5.51519e-09
8.21446e-10
5.41966e-09
6.05598e-10
5.3469e-09
4.73458e-10
5.28907e-09
3.80215e-10
5.24179e-09
3.1274e-10
5.20244e-09
2.6138e-10
5.16915e-09
2.22052e-10
5.14063e-09
1.90753e-10
5.11591e-09
1.65779e-10
5.0943e-09
1.4524e-10
5.07526e-09
1.28285e-10
5.05836e-09
1.1401e-10
5.04327e-09
1.01946e-10
5.02972e-09
9.16209e-11
5.01751e-09
8.27453e-11
5.00644e-09
7.50654e-11
4.99636e-09
6.84073e-11
4.98715e-09
6.2621e-11
4.97868e-09
5.76223e-11
4.97085e-09
5.33407e-11
4.96357e-09
4.97398e-11
4.95674e-09
4.68083e-11
4.95025e-09
4.45661e-11
4.94402e-09
4.30628e-11
4.93792e-09
4.23539e-11
4.93185e-09
4.25245e-11
4.92565e-09
4.36971e-11
4.9192e-09
4.60035e-11
4.9123e-09
4.9581e-11
4.90479e-09
5.45887e-11
4.89643e-09
6.12077e-11
4.887e-09
6.96257e-11
4.87624e-09
8.00267e-11
4.86386e-09
9.26053e-11
4.84955e-09
1.07564e-10
4.83297e-09
1.25113e-10
4.81376e-09
1.45454e-10
4.79153e-09
1.68802e-10
4.76587e-09
1.9536e-10
4.73632e-09
2.25396e-10
4.70242e-09
2.59119e-10
4.66363e-09
2.9688e-10
4.61944e-09
3.38853e-10
4.56921e-09
3.85627e-10
4.51235e-09
4.37242e-10
4.44809e-09
4.94861e-10
4.37574e-09
5.57979e-10
4.29427e-09
6.29362e-10
4.20293e-09
7.06686e-10
4.10009e-09
7.97247e-10
3.98511e-09
8.92827e-10
3.85488e-09
1.01437e-09
3.70946e-09
1.13423e-09
3.54158e-09
1.31723e-09
3.35465e-09
1.46967e-09
3.1296e-09
1.8012e-09
2.8817e-09
1.96677e-09
2.55769e-09
2.72855e-09
2.21068e-09
2.6477e-09
1.68145e-09
4.90481e-09
3.63498e-09
1.19344e-09
7.19893e-09
8.73823e-09
6.72983e-09
5.35799e-09
6.28879e-09
2.82952e-09
6.01809e-09
1.53668e-09
5.86017e-09
9.79357e-10
5.75443e-09
7.11344e-10
5.675e-09
5.52887e-10
5.61228e-09
4.42933e-10
5.56118e-09
3.63848e-10
5.51874e-09
3.03817e-10
5.48288e-09
2.5791e-10
5.45221e-09
2.21426e-10
5.42565e-09
1.92338e-10
5.40245e-09
1.68435e-10
5.38202e-09
1.48717e-10
5.3639e-09
1.32127e-10
5.34774e-09
1.18113e-10
5.33323e-09
1.06124e-10
5.32016e-09
9.58218e-11
5.30831e-09
8.691e-11
5.29754e-09
7.91846e-11
5.28769e-09
7.2471e-11
5.27864e-09
6.66702e-11
5.27028e-09
6.16985e-11
5.26251e-09
5.7512e-11
5.25522e-09
5.4097e-11
5.24831e-09
5.1474e-11
5.24168e-09
4.9697e-11
5.2352e-09
4.88288e-11
5.22876e-09
4.8965e-11
5.22222e-09
5.02438e-11
5.21541e-09
5.28136e-11
5.20816e-09
5.68297e-11
5.20027e-09
6.24722e-11
5.19154e-09
6.99457e-11
5.1817e-09
7.94632e-11
5.17049e-09
9.12326e-11
5.15762e-09
1.05474e-10
5.14277e-09
1.22417e-10
5.12559e-09
1.42297e-10
5.1057e-09
1.65343e-10
5.0827e-09
1.91799e-10
5.05617e-09
2.21892e-10
5.02564e-09
2.55924e-10
4.99063e-09
2.94131e-10
4.9506e-09
3.36907e-10
4.90501e-09
3.84448e-10
4.85322e-09
4.37415e-10
4.79461e-09
4.95852e-10
4.72841e-09
5.61066e-10
4.6539e-09
6.32488e-10
4.57004e-09
7.13223e-10
4.47606e-09
8.00664e-10
4.37032e-09
9.02987e-10
4.25214e-09
1.01101e-09
4.11838e-09
1.14813e-09
3.96908e-09
1.28353e-09
3.79696e-09
1.48935e-09
3.60535e-09
1.66129e-09
3.37632e-09
2.03023e-09
3.12352e-09
2.21957e-09
2.79811e-09
3.05396e-09
2.44668e-09
2.99913e-09
1.94012e-09
5.41136e-09
4.11631e-09
1.45879e-09
7.54971e-09
8.81629e-09
7.14451e-09
5.76319e-09
6.69934e-09
3.27468e-09
6.39752e-09
1.83851e-09
6.21737e-09
1.1595e-09
6.09966e-09
8.29056e-10
6.0127e-09
6.39849e-10
5.94456e-09
5.11069e-10
5.88926e-09
4.19148e-10
5.84345e-09
3.49624e-10
5.80482e-09
2.96546e-10
5.77181e-09
2.5443e-10
5.74327e-09
2.20882e-10
5.71836e-09
1.93341e-10
5.69644e-09
1.70638e-10
5.67702e-09
1.5155e-10
5.6597e-09
1.35434e-10
5.64417e-09
1.21655e-10
5.63017e-09
1.09818e-10
5.6175e-09
9.9582e-11
5.60597e-09
9.07097e-11
5.59545e-09
8.29998e-11
5.58578e-09
7.63375e-11
5.57685e-09
7.06236e-11
5.56856e-09
6.58065e-11
5.56079e-09
6.18693e-11
5.55343e-09
5.88325e-11
5.54637e-09
5.67545e-11
5.53949e-09
5.57049e-11
5.53267e-09
5.57907e-11
5.52575e-09
5.71653e-11
5.51857e-09
5.99943e-11
5.51095e-09
6.44512e-11
5.50268e-09
7.07377e-11
5.49354e-09
7.90829e-11
5.48328e-09
8.97251e-11
5.47162e-09
1.02897e-10
5.45824e-09
1.18845e-10
5.44284e-09
1.37825e-10
5.42503e-09
1.60101e-10
5.40445e-09
1.85928e-10
5.38067e-09
2.15579e-10
5.35325e-09
2.49308e-10
5.32172e-09
2.8745e-10
5.28559e-09
3.30267e-10
5.2443e-09
3.78199e-10
5.19728e-09
4.31463e-10
5.1439e-09
4.90791e-10
5.08352e-09
5.56234e-10
5.01535e-09
6.29242e-10
4.93865e-09
7.09184e-10
4.85237e-09
7.99504e-10
4.75572e-09
8.97314e-10
4.64703e-09
1.01168e-09
4.5256e-09
1.13244e-09
4.38825e-09
1.28548e-09
4.23498e-09
1.4368e-09
4.0587e-09
1.66562e-09
3.86252e-09
1.85747e-09
3.62957e-09
2.26318e-09
3.37231e-09
2.47682e-09
3.04556e-09
3.38071e-09
2.69024e-09
3.35444e-09
2.20376e-09
5.89785e-09
4.59156e-09
1.72851e-09
7.89586e-09
8.85177e-09
7.56064e-09
6.09841e-09
7.12439e-09
3.71094e-09
6.79457e-09
2.16832e-09
6.58955e-09
1.36453e-09
6.45748e-09
9.61128e-10
6.36198e-09
7.35345e-10
6.2878e-09
5.8525e-10
6.22787e-09
4.79073e-10
6.17838e-09
3.99123e-10
6.13671e-09
3.38209e-10
6.10118e-09
2.89967e-10
6.07048e-09
2.51577e-10
6.04373e-09
2.20095e-10
6.0202e-09
1.94164e-10
5.99937e-09
1.7238e-10
5.98081e-09
1.53998e-10
5.96417e-09
1.3829e-10
5.94919e-09
1.24802e-10
5.93563e-09
1.13142e-10
5.9233e-09
1.03036e-10
5.91205e-09
9.42557e-11
5.90172e-09
8.66675e-11
5.89218e-09
8.01554e-11
5.88333e-09
7.46589e-11
5.87504e-09
7.01578e-11
5.8672e-09
6.66716e-11
5.8597e-09
6.42628e-11
5.85239e-09
6.3008e-11
5.84516e-09
6.30253e-11
5.83784e-09
6.44839e-11
5.83027e-09
6.75666e-11
5.82225e-09
7.24657e-11
5.81359e-09
7.94047e-11
5.80403e-09
8.8638e-11
5.79333e-09
1.0043e-10
5.78118e-09
1.15039e-10
5.76729e-09
1.32737e-10
5.75131e-09
1.53808e-10
5.73286e-09
1.78546e-10
5.71156e-09
2.07231e-10
5.68697e-09
2.40167e-10
5.65865e-09
2.77632e-10
5.6261e-09
3.19999e-10
5.58881e-09
3.67555e-10
5.54623e-09
4.20785e-10
5.49776e-09
4.79928e-10
5.44276e-09
5.4579e-10
5.38057e-09
6.18425e-10
5.31038e-09
6.99431e-10
5.23146e-09
7.88112e-10
5.1427e-09
8.88256e-10
5.04332e-09
9.96693e-10
4.93162e-09
1.12339e-09
4.80685e-09
1.2572e-09
4.66578e-09
1.42655e-09
4.50845e-09
1.59413e-09
4.32814e-09
1.84593e-09
4.12763e-09
2.05798e-09
3.89076e-09
2.50005e-09
3.62922e-09
2.73836e-09
3.30118e-09
3.70876e-09
2.94242e-09
3.7132e-09
2.47312e-09
6.36715e-09
5.06198e-09
2.0027e-09
8.24352e-09
8.85524e-09
7.97871e-09
6.36321e-09
7.56277e-09
4.12688e-09
7.2107e-09
2.52039e-09
6.97931e-09
1.59592e-09
6.83012e-09
1.11031e-09
6.72464e-09
8.4083e-10
6.64368e-09
6.66211e-10
6.57863e-09
5.44121e-10
6.52507e-09
4.5268e-10
6.4801e-09
3.83185e-10
6.4418e-09
3.28265e-10
6.40876e-09
2.84612e-10
6.38e-09
2.48854e-10
6.35474e-09
2.19429e-10
6.33239e-09
1.94732e-10
6.31248e-09
1.73903e-10
6.29465e-09
1.56117e-10
6.27861e-09
1.40849e-10
6.26409e-09
1.27657e-10
6.2509e-09
1.16225e-10
6.23887e-09
1.06293e-10
6.22782e-09
9.77092e-11
6.21764e-09
9.03382e-11
6.20819e-09
8.41094e-11
6.19935e-09
7.89992e-11
6.191e-09
7.50252e-11
6.18301e-09
7.22531e-11
6.17525e-09
7.07667e-11
6.16758e-09
7.06957e-11
6.15984e-09
7.22248e-11
6.15185e-09
7.55545e-11
6.14342e-09
8.08959e-11
6.13433e-09
8.84951e-11
6.12433e-09
9.86324e-11
6.11316e-09
1.11599e-10
6.10052e-09
1.27679e-10
6.08609e-09
1.47172e-10
6.06951e-09
1.70389e-10
6.0504e-09
1.97654e-10
6.02835e-09
2.29276e-10
6.00293e-09
2.65587e-10
5.97367e-09
3.06893e-10
5.94007e-09
3.53601e-10
5.9016e-09
4.06027e-10
5.85768e-09
4.64702e-10
5.80773e-09
5.29883e-10
5.75106e-09
6.02455e-10
5.68701e-09
6.82474e-10
5.61476e-09
7.71686e-10
5.53354e-09
8.69331e-10
5.44225e-09
9.79548e-10
5.34006e-09
1.09888e-09
5.22523e-09
1.23821e-09
5.09701e-09
1.38543e-09
4.95216e-09
1.57139e-09
4.79079e-09
1.75551e-09
4.60646e-09
2.03026e-09
4.40174e-09
2.2627e-09
4.16096e-09
2.74083e-09
3.89521e-09
3.0041e-09
3.5659e-09
4.03807e-09
3.20409e-09
4.07501e-09
2.74927e-09
6.82197e-09
5.52899e-09
2.28226e-09
8.59574e-09
8.83472e-09
8.39747e-09
6.56149e-09
8.01246e-09
4.51189e-09
7.64677e-09
2.88609e-09
7.38899e-09
1.8537e-09
7.22003e-09
1.27927e-09
7.10249e-09
9.58374e-10
7.01376e-09
7.54939e-10
6.94301e-09
6.14873e-10
6.88497e-09
5.10719e-10
6.83635e-09
4.31799e-10
6.79503e-09
3.69585e-10
6.75944e-09
3.20198e-10
6.7285e-09
2.79796e-10
6.70135e-09
2.46584e-10
6.67734e-09
2.18734e-10
6.65599e-09
1.95262e-10
6.63687e-09
1.75232e-10
6.61967e-09
1.58046e-10
6.60413e-09
1.43203e-10
6.59001e-09
1.30343e-10
6.57713e-09
1.19172e-10
6.56532e-09
1.09517e-10
6.55444e-09
1.01221e-10
6.54435e-09
9.42029e-11
6.53491e-09
8.84346e-11
6.526e-09
8.39308e-11
6.5175e-09
8.076e-11
6.50925e-09
7.90133e-11
6.50111e-09
7.88319e-11
6.49292e-09
8.04164e-11
6.48449e-09
8.39847e-11
6.47562e-09
8.97673e-11
6.46608e-09
9.80336e-11
6.45563e-09
1.09091e-10
6.44397e-09
1.23256e-10
6.4308e-09
1.40841e-10
6.4158e-09
1.62174e-10
6.3986e-09
1.87594e-10
6.3788e-09
2.17454e-10
6.35598e-09
2.52092e-10
6.3297e-09
2.9187e-10
6.29947e-09
3.37122e-10
6.26478e-09
3.88293e-10
6.22508e-09
4.45723e-10
6.17979e-09
5.09992e-10
6.1283e-09
5.81377e-10
6.06992e-09
6.60839e-10
6.00395e-09
7.48438e-10
5.92957e-09
8.46071e-10
5.84598e-09
9.52915e-10
5.75207e-09
1.07346e-09
5.64697e-09
1.20398e-09
5.5289e-09
1.35628e-09
5.39709e-09
1.51723e-09
5.24849e-09
1.72e-09
5.08313e-09
1.92086e-09
4.89474e-09
2.21865e-09
4.68578e-09
2.47166e-09
4.44107e-09
2.98554e-09
4.17114e-09
3.27404e-09
3.84052e-09
4.36869e-09
3.47607e-09
4.43946e-09
3.03339e-09
7.26465e-09
5.9938e-09
2.56858e-09
8.95531e-09
8.7959e-09
8.81772e-09
6.69909e-09
8.47259e-09
4.85701e-09
8.1031e-09
3.25558e-09
7.82038e-09
2.13642e-09
7.62955e-09
1.47011e-09
7.49758e-09
1.09034e-09
7.39964e-09
8.5288e-10
7.32243e-09
6.92078e-10
7.25943e-09
5.73728e-10
7.2068e-09
4.84426e-10
7.16216e-09
4.14225e-10
7.12378e-09
3.5858e-10
7.09045e-09
3.13123e-10
7.06124e-09
2.75798e-10
7.03544e-09
2.44531e-10
7.0125e-09
2.18199e-10
6.99199e-09
1.95746e-10
6.97355e-09
1.76489e-10
6.95688e-09
1.59866e-10
6.94176e-09
1.45467e-10
6.92797e-09
1.3296e-10
6.91534e-09
1.22153e-10
6.9037e-09
1.1286e-10
6.89291e-09
1.0499e-10
6.88284e-09
9.85099e-11
6.87334e-09
9.34304e-11
6.86427e-09
8.98221e-11
6.8555e-09
8.77833e-11
6.84687e-09
8.74673e-11
6.83819e-09
8.909e-11
6.82929e-09
9.28869e-11
6.81995e-09
9.91084e-11
6.80994e-09
1.08048e-10
6.79899e-09
1.20039e-10
6.78682e-09
1.35429e-10
6.7731e-09
1.54554e-10
6.75751e-09
1.77771e-10
6.73965e-09
2.0545e-10
6.71913e-09
2.37974e-10
6.69551e-09
2.7571e-10
6.66833e-09
3.19051e-10
6.63709e-09
3.68359e-10
6.60127e-09
4.24115e-10
6.56031e-09
4.86688e-10
6.5136e-09
5.56703e-10
6.46051e-09
6.34462e-10
6.40035e-09
7.21e-10
6.33241e-09
8.16383e-10
6.25582e-09
9.22661e-10
6.16978e-09
1.03895e-09
6.07315e-09
1.1701e-09
5.96502e-09
1.3121e-09
5.84359e-09
1.47772e-09
5.70814e-09
1.65267e-09
5.55576e-09
1.87238e-09
5.38643e-09
2.09019e-09
5.19391e-09
2.41117e-09
4.98062e-09
2.68495e-09
4.73195e-09
3.23421e-09
4.45781e-09
3.54817e-09
4.12584e-09
4.70066e-09
3.75909e-09
4.80621e-09
3.32669e-09
7.69706e-09
6.45737e-09
2.86312e-09
9.32238e-09
8.74488e-09
9.23888e-09
6.78259e-09
8.94225e-09
5.15364e-09
8.57893e-09
3.6189e-09
8.27485e-09
2.4405e-09
8.06085e-09
1.68411e-09
7.91215e-09
1.23903e-09
7.80317e-09
9.6186e-10
7.71841e-09
7.76844e-10
7.64979e-09
6.4234e-10
7.59273e-09
5.41492e-10
7.54443e-09
4.62522e-10
7.50298e-09
4.0003e-10
7.46704e-09
3.49061e-10
7.43558e-09
3.07263e-10
7.40782e-09
2.72288e-10
7.38316e-09
2.42855e-10
7.36113e-09
2.1778e-10
7.34133e-09
1.96285e-10
7.32346e-09
1.77741e-10
7.30725e-09
1.61681e-10
7.29247e-09
1.47735e-10
7.27894e-09
1.35684e-10
7.26648e-09
1.25315e-10
7.25495e-09
1.16525e-10
7.24418e-09
1.09276e-10
7.23404e-09
1.03571e-10
7.22438e-09
9.94824e-11
7.21505e-09
9.71168e-11
7.20588e-09
9.66392e-11
7.19669e-09
9.82805e-11
7.18728e-09
1.02294e-10
7.17744e-09
1.08951e-10
7.16692e-09
1.18568e-10
7.15545e-09
1.31509e-10
7.14273e-09
1.48146e-10
7.12844e-09
1.68847e-10
7.11221e-09
1.93994e-10
7.09367e-09
2.2399e-10
7.0724e-09
2.59249e-10
7.04794e-09
3.00167e-10
7.01982e-09
3.47167e-10
6.98754e-09
4.00643e-10
6.95054e-09
4.61111e-10
6.90826e-09
5.2897e-10
6.86007e-09
6.04891e-10
6.80534e-09
6.89197e-10
6.74333e-09
7.83004e-10
6.67334e-09
8.86382e-10
6.59446e-09
1.00154e-09
6.50588e-09
1.12753e-09
6.4064e-09
1.26958e-09
6.29511e-09
1.4234e-09
6.17024e-09
1.60259e-09
6.03115e-09
1.79176e-09
5.87495e-09
2.02858e-09
5.70156e-09
2.26358e-09
5.50482e-09
2.60791e-09
5.2871e-09
2.90267e-09
5.03439e-09
3.48692e-09
4.75603e-09
3.82653e-09
4.42264e-09
5.03405e-09
4.05388e-09
5.17497e-09
3.63032e-09
8.12062e-09
6.92044e-09
3.16725e-09
9.69432e-09
8.69091e-09
9.65649e-09
6.82041e-09
9.41766e-09
5.39247e-09
9.07188e-09
3.96468e-09
8.75327e-09
2.75911e-09
8.51586e-09
1.92153e-09
8.34837e-09
1.40652e-09
8.22642e-09
1.08381e-09
8.13266e-09
8.706e-10
8.05751e-09
7.17494e-10
7.99543e-09
6.03573e-10
7.94309e-09
5.14863e-10
7.89826e-09
4.44862e-10
7.85945e-09
3.87867e-10
7.82552e-09
3.41196e-10
7.79562e-09
3.02187e-10
7.76908e-09
2.6939e-10
7.74539e-09
2.41474e-10
7.72412e-09
2.17555e-10
7.70493e-09
1.96934e-10
7.68753e-09
1.79079e-10
7.67168e-09
1.63579e-10
7.65718e-09
1.50188e-10
7.64384e-09
1.38657e-10
7.63149e-09
1.28872e-10
7.61998e-09
1.2079e-10
7.60914e-09
1.14404e-10
7.59884e-09
1.09789e-10
7.5889e-09
1.07058e-10
7.57915e-09
1.06389e-10
7.5694e-09
1.08027e-10
7.55945e-09
1.12243e-10
7.54907e-09
1.19329e-10
7.53801e-09
1.29629e-10
7.52599e-09
1.43532e-10
7.51269e-09
1.61442e-10
7.49779e-09
1.83752e-10
7.48091e-09
2.10878e-10
7.46165e-09
2.4325e-10
7.43958e-09
2.81314e-10
7.41425e-09
3.255e-10
7.38515e-09
3.76261e-10
7.35178e-09
4.3402e-10
7.31356e-09
4.99331e-10
7.2699e-09
5.72622e-10
7.22018e-09
6.54613e-10
7.16373e-09
7.45649e-10
7.09981e-09
8.46925e-10
7.02767e-09
9.58518e-10
6.94641e-09
1.0828e-09
6.85517e-09
1.21876e-09
6.75272e-09
1.37203e-09
6.63815e-09
1.53797e-09
6.50982e-09
1.73092e-09
6.36706e-09
1.93452e-09
6.20694e-09
2.1887e-09
6.02938e-09
2.44114e-09
5.82832e-09
2.80897e-09
5.60605e-09
3.12494e-09
5.34922e-09
3.74376e-09
5.06659e-09
4.10916e-09
4.7317e-09
5.36894e-09
4.36114e-09
5.54553e-09
3.94536e-09
8.5364e-09
7.38353e-09
3.48227e-09
1.00744e-08
8.6405e-09
1.00721e-08
6.8227e-09
9.89527e-09
5.56933e-09
9.57935e-09
4.2806e-09
9.25573e-09
3.08272e-09
8.99624e-09
2.18102e-09
8.80832e-09
1.59443e-09
8.67146e-09
1.22067e-09
8.56717e-09
9.74897e-10
8.4843e-09
8.00365e-10
8.41635e-09
6.71522e-10
8.35941e-09
5.71801e-10
8.31084e-09
4.93436e-10
8.26887e-09
4.29834e-10
8.23222e-09
3.77842e-10
8.19997e-09
3.34438e-10
8.17138e-09
2.97981e-10
8.14587e-09
2.66981e-10
8.12299e-09
2.40435e-10
8.10236e-09
2.17566e-10
8.08367e-09
1.97768e-10
8.06666e-09
1.80588e-10
8.0511e-09
1.65748e-10
8.0368e-09
1.5296e-10
8.02357e-09
1.421e-10
8.01125e-09
1.33115e-10
7.99966e-09
1.25988e-10
7.98866e-09
1.20794e-10
7.97806e-09
1.17656e-10
7.96768e-09
1.16762e-10
7.95734e-09
1.18372e-10
7.94681e-09
1.22775e-10
7.93585e-09
1.30283e-10
7.92422e-09
1.41267e-10
7.9116e-09
1.56145e-10
7.89769e-09
1.75352e-10
7.88214e-09
1.99308e-10
7.86456e-09
2.28458e-10
7.84454e-09
2.63266e-10
7.82164e-09
3.04212e-10
7.79539e-09
3.51753e-10
7.76527e-09
4.06379e-10
7.73075e-09
4.68539e-10
7.69126e-09
5.38829e-10
7.64617e-09
6.17705e-10
7.59485e-09
7.05935e-10
7.53661e-09
8.03889e-10
7.47069e-09
9.12843e-10
7.39633e-09
1.03288e-09
7.31258e-09
1.16655e-09
7.21855e-09
1.31279e-09
7.11301e-09
1.47757e-09
6.99513e-09
1.65585e-09
6.86328e-09
1.86277e-09
6.71675e-09
2.08105e-09
6.5526e-09
2.35285e-09
6.37073e-09
2.62301e-09
6.16525e-09
3.01445e-09
5.93831e-09
3.35187e-09
5.67727e-09
4.0048e-09
5.3903e-09
4.39613e-09
5.05383e-09
5.70541e-09
4.68161e-09
5.91774e-09
4.27282e-09
8.94519e-09
7.84693e-09
3.80942e-09
1.04683e-08
8.59511e-09
1.04915e-08
6.79954e-09
1.03752e-08
5.68564e-09
1.00996e-08
4.5562e-09
9.78067e-09
3.40165e-09
9.50321e-09
2.45848e-09
9.29403e-09
1.80362e-09
9.14035e-09
1.37435e-09
9.02388e-09
1.09137e-09
8.93204e-09
8.92199e-10
8.85722e-09
7.46342e-10
8.7949e-09
6.34124e-10
8.74203e-09
5.46309e-10
8.69652e-09
4.75339e-10
8.65688e-09
4.17479e-10
8.62205e-09
3.69275e-10
8.5912e-09
3.28832e-10
8.5637e-09
2.94478e-10
8.53906e-09
2.65077e-10
8.51685e-09
2.39771e-10
8.49675e-09
2.17866e-10
8.47847e-09
1.98869e-10
8.46176e-09
1.82462e-10
8.44641e-09
1.68312e-10
8.43222e-09
1.56286e-10
8.41901e-09
1.46323e-10
8.40661e-09
1.38388e-10
8.39485e-09
1.32557e-10
8.38354e-09
1.28965e-10
8.37249e-09
1.2781e-10
8.3615e-09
1.29364e-10
8.35034e-09
1.33934e-10
8.33877e-09
1.41855e-10
8.32651e-09
1.53523e-10
8.31327e-09
1.6939e-10
8.29871e-09
1.89917e-10
8.28246e-09
2.15553e-10
8.26414e-09
2.46776e-10
8.24333e-09
2.84083e-10
8.21955e-09
3.27984e-10
8.19233e-09
3.78973e-10
8.16114e-09
4.37568e-10
8.12543e-09
5.04254e-10
8.0846e-09
5.79662e-10
8.03802e-09
6.64281e-10
7.98503e-09
7.58927e-10
7.92492e-09
8.63995e-10
7.85692e-09
9.80845e-10
7.78023e-09
1.10958e-09
7.69386e-09
1.25291e-09
7.59693e-09
1.40972e-09
7.48824e-09
1.58626e-09
7.367e-09
1.7771e-09
7.23154e-09
1.99823e-09
7.08112e-09
2.23147e-09