/*--------------------------------*- C++ -*----------------------------------*\
| =========                 |                                                 |
| \\      /  F ield         | OpenFOAM: The Open Source CFD Toolbox           |
|  \\    /   O peration     | Version:  v1906                                 |
|   \\  /    A nd           | Web:      www.OpenFOAM.com                      |
|    \\/     M anipulation  |                                                 |
\*---------------------------------------------------------------------------*/
FoamFile
{
    version     2.0;
    format      ascii;
    class       volVectorField;
    location    "0.3";
    object      U;
}
// * * * * * * * * * * * * * * * * * * * * * * * * * * * * * * * * * * * * * //

dimensions      [0 1 -1 0 0 0 0];


internalField   nonuniform List<vector> 
80000
(
(4.90302 0.00476563 0)
(3.68559 0.000649774 0)
(3.51619 9.453e-05 0)
(3.40729 0.000102283 0)
(3.31168 8.83797e-05 0)
(3.24075 6.94026e-05 0)
(3.18459 5.66989e-05 0)
(3.14061 4.79985e-05 0)
(3.10394 4.15805e-05 0)
(3.07377 3.66141e-05 0)
(3.04792 3.27131e-05 0)
(3.02593 2.9557e-05 0)
(3.00673 2.69912e-05 0)
(2.99 2.48448e-05 0)
(2.97519 2.30406e-05 0)
(2.96207 2.14967e-05 0)
(2.95034 2.01733e-05 0)
(2.93981 1.90249e-05 0)
(2.9303 1.80276e-05 0)
(2.92169 1.71591e-05 0)
(2.91385 1.64072e-05 0)
(2.90668 1.5761e-05 0)
(2.90009 1.52238e-05 0)
(2.89399 1.48017e-05 0)
(2.88832 1.45085e-05 0)
(2.88299 1.43668e-05 0)
(2.87793 1.44159e-05 0)
(2.87305 1.47089e-05 0)
(2.86827 1.53053e-05 0)
(2.86347 1.62892e-05 0)
(2.85856 1.77745e-05 0)
(2.85339 1.98912e-05 0)
(2.84781 2.27909e-05 0)
(2.84166 2.66603e-05 0)
(2.83475 3.17226e-05 0)
(2.82686 3.82318e-05 0)
(2.81776 4.64742e-05 0)
(2.80717 5.67832e-05 0)
(2.79482 6.95389e-05 0)
(2.78038 8.51675e-05 0)
(2.76351 0.000104141 0)
(2.74385 0.000126994 0)
(2.72099 0.000154318 0)
(2.69451 0.000186817 0)
(2.66395 0.000225221 0)
(2.62883 0.00027044 0)
(2.58858 0.000323343 0)
(2.54273 0.000385234 0)
(2.49048 0.000457058 0)
(2.43147 0.000540874 0)
(2.36442 0.000637308 0)
(2.28945 0.000750469 0)
(2.20398 0.000879136 0)
(2.10983 0.00103341 0)
(2.0006 0.00120464 0)
(1.88385 0.00142267 0)
(1.74133 0.00164988 0)
(1.59956 0.00199191 0)
(1.40186 0.00238449 0)
(1.23015 0.00305412 0)
(0.909595 0.00335091 0)
(0.748161 0.00454439 0)
(0.15393 0.00253952 0)
(0.325666 0.0022741 0)
(-0.761431 -0.000894402 0)
(6.29402 0.00881755 0)
(5.02086 0.00199343 0)
(4.7131 0.000462474 0)
(4.57559 0.000327913 0)
(4.46704 0.000277118 0)
(4.38417 0.000224111 0)
(4.31785 0.000184865 0)
(4.26583 0.000156429 0)
(4.2226 0.000135485 0)
(4.18705 0.000119209 0)
(4.15664 0.000106509 0)
(4.13079 9.61917e-05 0)
(4.10824 8.78384e-05 0)
(4.08861 8.08362e-05 0)
(4.07124 7.49682e-05 0)
(4.05586 6.99396e-05 0)
(4.04211 6.56359e-05 0)
(4.02978 6.18986e-05 0)
(4.01865 5.86545e-05 0)
(4.00857 5.58274e-05 0)
(3.99939 5.33794e-05 0)
(3.991 5.12732e-05 0)
(3.9833 4.9517e-05 0)
(3.97618 4.81287e-05 0)
(3.96955 4.71523e-05 0)
(3.96333 4.6658e-05 0)
(3.95744 4.67658e-05 0)
(3.95176 4.76438e-05 0)
(3.94621 4.94822e-05 0)
(3.94066 5.25421e-05 0)
(3.93499 5.71795e-05 0)
(3.92904 6.38076e-05 0)
(3.92266 7.29058e-05 0)
(3.91564 8.50613e-05 0)
(3.90778 0.000100978 0)
(3.89884 0.000121465 0)
(3.88854 0.000147432 0)
(3.87659 0.000179937 0)
(3.86267 0.000220191 0)
(3.84642 0.000269567 0)
(3.82745 0.000329591 0)
(3.80536 0.000402004 0)
(3.77969 0.000488735 0)
(3.74997 0.000592115 0)
(3.71566 0.000714577 0)
(3.67625 0.00085924 0)
(3.63105 0.00102906 0)
(3.57954 0.00122865 0)
(3.52081 0.00146133 0)
(3.4544 0.00173474 0)
(3.37889 0.00205119 0)
(3.29426 0.00242631 0)
(3.19769 0.00285598 0)
(3.09086 0.00337901 0)
(2.96692 0.00396454 0)
(2.83327 0.00472692 0)
(2.67075 0.00553008 0)
(2.50573 0.00676493 0)
(2.27971 0.00798866 0)
(2.0829 0.0105533 0)
(1.72869 0.0119175 0)
(1.52668 0.0176933 0)
(0.831705 0.0135892 0)
(0.872291 0.0264474 0)
(-0.808911 0.0174204 0)
(6.8562 0.0127453 0)
(5.65144 0.00354687 0)
(5.26852 0.000969939 0)
(5.10768 0.00060913 0)
(4.99182 0.00049971 0)
(4.90378 0.000406765 0)
(4.83308 0.000336656 0)
(4.77754 0.000284792 0)
(4.73145 0.000246528 0)
(4.69354 0.000216774 0)
(4.66117 0.000193603 0)
(4.63364 0.000174775 0)
(4.60965 0.000159547 0)
(4.58877 0.000146784 0)
(4.57031 0.000136099 0)
(4.55396 0.000126943 0)
(4.53935 0.000119111 0)
(4.52625 0.00011231 0)
(4.51443 0.000106408 0)
(4.50372 0.000101264 0)
(4.49398 9.68085e-05 0)
(4.48508 9.29725e-05 0)
(4.4769 8.97677e-05 0)
(4.46934 8.72242e-05 0)
(4.46232 8.54195e-05 0)
(4.45573 8.44769e-05 0)
(4.44949 8.4606e-05 0)
(4.44348 8.61047e-05 0)
(4.43762 8.93115e-05 0)
(4.43176 9.4687e-05 0)
(4.42579 0.000102859 0)
(4.41954 0.000114562 0)
(4.41285 0.000130645 0)
(4.40551 0.000152148 0)
(4.39731 0.000180316 0)
(4.38799 0.000216585 0)
(4.37728 0.000262568 0)
(4.36487 0.000320136 0)
(4.35043 0.000391436 0)
(4.33358 0.000478904 0)
(4.31394 0.000585246 0)
(4.29108 0.000713558 0)
(4.26453 0.000867262 0)
(4.2338 0.0010505 0)
(4.19835 0.0012676 0)
(4.15763 0.00152414 0)
(4.11097 0.00182539 0)
(4.05779 0.00217963 0)
(3.9972 0.00259282 0)
(3.92869 0.00307871 0)
(3.85084 0.00364163 0)
(3.76358 0.00430955 0)
(3.66414 0.00507591 0)
(3.55403 0.00600972 0)
(3.42664 0.00705849 0)
(3.28884 0.00842404 0)
(3.12238 0.00987323 0)
(2.95186 0.0120879 0)
(2.72213 0.0142079 0)
(2.51852 0.0185782 0)
(2.16396 0.0210487 0)
(1.95012 0.0317209 0)
(1.26289 0.0269447 0)
(1.22554 0.0575212 0)
(-0.536692 0.0324148 0)
(7.23799 0.0157456 0)
(6.0933 0.00513781 0)
(5.6496 0.00158983 0)
(5.46271 0.000935131 0)
(5.33846 0.000744312 0)
(5.24583 0.000606129 0)
(5.17156 0.000502584 0)
(5.11313 0.000425092 0)
(5.06472 0.000367821 0)
(5.0249 0.000323253 0)
(4.99094 0.000288597 0)
(4.96207 0.000260431 0)
(4.93693 0.000237673 0)
(4.91505 0.0002186 0)
(4.89572 0.000202644 0)
(4.87861 0.000188974 0)
(4.86332 0.000177285 0)
(4.84961 0.000167138 0)
(4.83725 0.000158332 0)
(4.82606 0.000150657 0)
(4.81587 0.000144008 0)
(4.80656 0.000138281 0)
(4.79802 0.00013349 0)
(4.79013 0.000129677 0)
(4.78279 0.000126954 0)
(4.77592 0.0001255 0)
(4.7694 0.000125621 0)
(4.76315 0.000127749 0)
(4.75705 0.000132383 0)
(4.75097 0.000140193 0)
(4.74478 0.000152094 0)
(4.73833 0.000169162 0)
(4.73142 0.00019264 0)
(4.72387 0.000224045 0)
(4.71545 0.000265197 0)
(4.7059 0.000318194 0)
(4.69495 0.000385395 0)
(4.68228 0.000469533 0)
(4.66755 0.000573742 0)
(4.65039 0.000701578 0)
(4.6304 0.000856998 0)
(4.60715 0.00104452 0)
(4.58016 0.00126915 0)
(4.54894 0.00153691 0)
(4.51294 0.00185413 0)
(4.47161 0.00222897 0)
(4.42427 0.00266911 0)
(4.37034 0.00318663 0)
(4.30891 0.00379026 0)
(4.23948 0.0045001 0)
(4.16064 0.0053225 0)
(4.07228 0.00629829 0)
(3.97169 0.00741814 0)
(3.86026 0.00878234 0)
(3.73162 0.0103156 0)
(3.5922 0.0123096 0)
(3.42464 0.0144307 0)
(3.25201 0.0176544 0)
(3.02225 0.0206939 0)
(2.81477 0.0269654 0)
(2.46393 0.0306017 0)
(2.2412 0.0461393 0)
(1.57508 0.0412796 0)
(1.48351 0.0889845 0)
(-0.236033 0.0540909 0)
(7.50876 0.0180893 0)
(6.45036 0.00679584 0)
(5.95129 0.00233055 0)
(5.73593 0.00131651 0)
(5.60159 0.00101585 0)
(5.50414 0.000823993 0)
(5.42647 0.000683643 0)
(5.36534 0.00057813 0)
(5.31479 0.000500031 0)
(5.27322 0.000439223 0)
(5.23781 0.000391985 0)
(5.20772 0.0003536 0)
(5.18154 0.000322606 0)
(5.15877 0.000296637 0)
(5.13866 0.000274926 0)
(5.12086 0.00025633 0)
(5.10497 0.000240434 0)
(5.09072 0.000226637 0)
(5.07788 0.000214667 0)
(5.06625 0.000204233 0)
(5.05567 0.000195192 0)
(5.04601 0.0001874 0)
(5.03714 0.000180875 0)
(5.02895 0.000175667 0)
(5.02135 0.000171924 0)
(5.01423 0.000169885 0)
(5.00748 0.000169953 0)
(5.00102 0.000172702 0)
(4.99471 0.000178797 0)
(4.98845 0.000189131 0)
(4.98209 0.00020492 0)
(4.97546 0.000227596 0)
(4.9684 0.000258816 0)
(4.96069 0.000300597 0)
(4.95212 0.000355363 0)
(4.94242 0.000425909 0)
(4.93131 0.000515375 0)
(4.91848 0.000627399 0)
(4.90359 0.000766145 0)
(4.88626 0.000936349 0)
(4.8661 0.00114327 0)
(4.84265 0.00139294 0)
(4.81546 0.00169197 0)
(4.78404 0.0020484 0)
(4.74781 0.00247065 0)
(4.70624 0.00296952 0)
(4.65865 0.00355527 0)
(4.60445 0.00424393 0)
(4.54276 0.00504711 0)
(4.47304 0.0059915 0)
(4.39392 0.00708563 0)
(4.30527 0.00838356 0)
(4.20444 0.00987332 0)
(4.09272 0.0116872 0)
(3.96399 0.0137271 0)
(3.8243 0.0163758 0)
(3.65706 0.0191995 0)
(3.48407 0.023467 0)
(3.25598 0.0274829 0)
(3.04729 0.0357007 0)
(2.70208 0.0405948 0)
(2.47433 0.0610038 0)
(1.83267 0.0566279 0)
(1.70367 0.121701 0)
(0.0932189 0.0780984 0)
(7.7039 0.0199783 0)
(6.75774 0.00847432 0)
(6.20902 0.00319222 0)
(5.96289 0.00176103 0)
(5.81665 0.00131806 0)
(5.71384 0.00106143 0)
(5.6327 0.000880103 0)
(5.56894 0.00074399 0)
(5.5163 0.000643172 0)
(5.47305 0.000564661 0)
(5.43625 0.000503716 0)
(5.405 0.000454215 0)
(5.37784 0.000414269 0)
(5.35422 0.000380812 0)
(5.33338 0.000352856 0)
(5.31494 0.00032892 0)
(5.29849 0.000308465 0)
(5.28374 0.000290716 0)
(5.27045 0.00027532 0)
(5.25842 0.000261899 0)
(5.24748 0.000250267 0)
(5.23749 0.000240238 0)
(5.22833 0.000231828 0)
(5.21987 0.000225098 0)
(5.21201 0.000220231 0)
(5.20466 0.000217528 0)
(5.19771 0.00021749 0)
(5.19106 0.00022084 0)
(5.18457 0.000228415 0)
(5.17815 0.000241341 0)
(5.17163 0.000261144 0)
(5.16486 0.000289628 0)
(5.15767 0.000328881 0)
(5.14984 0.000381441 0)
(5.14115 0.000450358 0)
(5.13134 0.00053915 0)
(5.12013 0.000651775 0)
(5.10721 0.000792807 0)
(5.09224 0.000967483 0)
(5.07483 0.00118176 0)
(5.0546 0.00144226 0)
(5.03109 0.00175654 0)
(5.00385 0.00213295 0)
(4.97238 0.00258158 0)
(4.93613 0.00311297 0)
(4.89454 0.00374074 0)
(4.84696 0.00447774 0)
(4.79279 0.00534408 0)
(4.73116 0.00635436 0)
(4.66154 0.00754205 0)
(4.58258 0.00891791 0)
(4.49412 0.0105496 0)
(4.39361 0.0124224 0)
(4.28223 0.0147013 0)
(4.15409 0.0172653 0)
(4.01494 0.0205887 0)
(3.84886 0.0241383 0)
(3.67661 0.0294745 0)
(3.45111 0.0345005 0)
(3.24294 0.0446931 0)
(2.90408 0.0509111 0)
(2.67445 0.0760758 0)
(2.05911 0.0726392 0)
(1.90452 0.153746 0)
(0.427739 0.104403 0)
(7.84593 0.0214195 0)
(7.02823 0.0101293 0)
(6.44158 0.00418098 0)
(6.1614 0.00228063 0)
(6.00149 0.00165653 0)
(5.89256 0.00132104 0)
(5.80775 0.00109334 0)
(5.7413 0.000923606 0)
(5.68657 0.000797967 0)
(5.64164 0.000700158 0)
(5.60348 0.000624283 0)
(5.57109 0.000562698 0)
(5.54297 0.000513027 0)
(5.51853 0.000471447 0)
(5.49698 0.00043672 0)
(5.47792 0.000407002 0)
(5.46092 0.000381612 0)
(5.44569 0.00035959 0)
(5.43197 0.000340488 0)
(5.41956 0.00032384 0)
(5.40827 0.000309405 0)
(5.39797 0.000296954 0)
(5.38852 0.000286503 0)
(5.3798 0.000278115 0)
(5.37171 0.00027201 0)
(5.36415 0.000268555 0)
(5.357 0.000268352 0)
(5.35016 0.000272274 0)
(5.34352 0.000281339 0)
(5.33694 0.000296913 0)
(5.33028 0.000320845 0)
(5.32339 0.000355321 0)
(5.31608 0.000402878 0)
(5.30814 0.000466594 0)
(5.29936 0.000550167 0)
(5.28948 0.000657869 0)
(5.27821 0.0007945 0)
(5.26523 0.000965604 0)
(5.25022 0.00117753 0)
(5.23279 0.0014375 0)
(5.21255 0.00175353 0)
(5.18906 0.0021348 0)
(5.16185 0.00259141 0)
(5.13045 0.00313554 0)
(5.09428 0.00378 0)
(5.05282 0.00454123 0)
(5.0054 0.00543479 0)
(4.95145 0.00648498 0)
(4.89009 0.00770946 0)
(4.8208 0.0091486 0)
(4.74226 0.0108155 0)
(4.65429 0.0127916 0)
(4.55441 0.0150597 0)
(4.44376 0.0178175 0)
(4.31661 0.0209213 0)
(4.17848 0.0249374 0)
(4.01404 0.0292337 0)
(3.84317 0.0356602 0)
(3.62073 0.0417253 0)
(3.4141 0.0539204 0)
(3.08187 0.0615038 0)
(2.85246 0.091269 0)
(2.26398 0.0891244 0)
(2.0919 0.184597 0)
(0.750402 0.131529 0)
(7.95871 0.0225191 0)
(7.26736 0.0117407 0)
(6.6582 0.00529529 0)
(6.34134 0.00288494 0)
(6.16626 0.00203656 0)
(6.05032 0.00160575 0)
(5.9615 0.00132489 0)
(5.89222 0.00111798 0)
(5.83535 0.000965167 0)
(5.78871 0.000846318 0)
(5.74917 0.000754186 0)
(5.71563 0.000679474 0)
(5.68656 0.000619247 0)
(5.66129 0.000568862 0)
(5.63903 0.000526804 0)
(5.61936 0.000490832 0)
(5.60182 0.000460109 0)
(5.58612 0.000433471 0)
(5.57197 0.000410369 0)
(5.55918 0.000390235 0)
(5.54755 0.000372775 0)
(5.53695 0.000357708 0)
(5.52722 0.000345046 0)
(5.51825 0.000334855 0)
(5.50994 0.000327393 0)
(5.50216 0.000323089 0)
(5.49482 0.000322653 0)
(5.48781 0.000327111 0)
(5.481 0.000337667 0)
(5.47428 0.000355934 0)
(5.46749 0.000384097 0)
(5.46048 0.000424737 0)
(5.45307 0.000480851 0)
(5.44504 0.000556079 0)
(5.43619 0.000654789 0)
(5.42624 0.000782028 0)
(5.41492 0.00094347 0)
(5.40192 0.00114566 0)
(5.3869 0.0013961 0)
(5.36948 0.0017033 0)
(5.34927 0.00207675 0)
(5.32584 0.00252726 0)
(5.29873 0.00306673 0)
(5.26745 0.00370956 0)
(5.23145 0.00447081 0)
(5.1902 0.00536986 0)
(5.14304 0.00642504 0)
(5.08941 0.00766493 0)
(5.02844 0.00911033 0)
(4.95962 0.0108087 0)
(4.88166 0.0127755 0)
(4.79436 0.0151061 0)
(4.69532 0.017781 0)
(4.58562 0.0210307 0)
(4.45969 0.0246893 0)
(4.32288 0.0294151 0)
(4.16034 0.0344772 0)
(3.99122 0.0420154 0)
(3.77202 0.0491475 0)
(3.56753 0.0633618 0)
(3.24254 0.0723603 0)
(3.0143 0.106552 0)
(2.45203 0.105972 0)
(2.26809 0.214103 0)
(1.05314 0.158655 0)
(8.03912 0.0232576 0)
(7.47324 0.0132868 0)
(6.86184 0.00651986 0)
(6.50988 0.00358382 0)
(6.3173 0.00246576 0)
(6.19334 0.00191915 0)
(6.10005 0.00157675 0)
(6.02775 0.0013284 0)
(5.96864 0.00114573 0)
(5.92023 0.00100391 0)
(5.87927 0.000894062 0)
(5.84456 0.000805084 0)
(5.8145 0.000733399 0)
(5.7884 0.000673473 0)
(5.76543 0.000623477 0)
(5.74513 0.000580744 0)
(5.72705 0.000544257 0)
(5.71087 0.000512637 0)
(5.6963 0.000485218 0)
(5.68313 0.000461326 0)
(5.67116 0.000440602 0)
(5.66025 0.000422709 0)
(5.65025 0.000407656 0)
(5.64103 0.000395508 0)
(5.63249 0.000386556 0)
(5.6245 0.0003813 0)
(5.61698 0.000380556 0)
(5.60979 0.000385505 0)
(5.60283 0.000397544 0)
(5.59596 0.000418543 0)
(5.58905 0.000451031 0)
(5.58193 0.000497996 0)
(5.57441 0.000562913 0)
(5.56631 0.000649996 0)
(5.55738 0.000764308 0)
(5.54738 0.000911697 0)
(5.53603 0.00109874 0)
(5.52301 0.00133301 0)
(5.508 0.00162319 0)
(5.49061 0.00197915 0)
(5.47046 0.00241184 0)
(5.44712 0.00293379 0)
(5.42014 0.00355876 0)
(5.38902 0.00430339 0)
(5.35323 0.00518508 0)
(5.31224 0.00622622 0)
(5.26541 0.00744796 0)
(5.21216 0.00888327 0)
(5.15167 0.0105562 0)
(5.0834 0.0125212 0)
(5.00611 0.0147966 0)
(4.9196 0.0174916 0)
(4.8215 0.0205843 0)
(4.71288 0.0243389 0)
(4.58832 0.0285665 0)
(4.45298 0.0340187 0)
(4.29247 0.0398653 0)
(4.12531 0.048538 0)
(3.90936 0.0567594 0)
(3.70736 0.0730012 0)
(3.39037 0.0834747 0)
(3.16351 0.121883 0)
(2.62627 0.123102 0)
(2.43484 0.242272 0)
(1.33347 0.185476 0)
(8.0715 0.023709 0)
(7.63953 0.0147116 0)
(7.05285 0.0078236 0)
(6.67223 0.00438475 0)
(6.4588 0.00295222 0)
(6.32575 0.00226516 0)
(6.22746 0.00185132 0)
(6.1519 0.00155642 0)
(6.0904 0.00134081 0)
(6.04013 0.00117385 0)
(5.99768 0.00104467 0)
(5.96175 0.000940174 0)
(5.93068 0.000856043 0)
(5.90372 0.000785771 0)
(5.88002 0.00072718 0)
(5.85909 0.000677134 0)
(5.84045 0.00063442 0)
(5.82378 0.000597421 0)
(5.80878 0.000565345 0)
(5.79523 0.000537399 0)
(5.78292 0.000513152 0)
(5.77169 0.000492209 0)
(5.76141 0.000474571 0)
(5.75194 0.000460298 0)
(5.74317 0.000449715 0)
(5.73498 0.000443394 0)
(5.72726 0.000442257 0)
(5.7199 0.000447644 0)
(5.71278 0.000461152 0)
(5.70578 0.000484915 0)
(5.69874 0.000521815 0)
(5.6915 0.000575262 0)
(5.68389 0.000649219 0)
(5.6757 0.000748496 0)
(5.66671 0.000878871 0)
(5.65667 0.00104702 0)
(5.64529 0.00126044 0)
(5.63227 0.00152778 0)
(5.61727 0.00185893 0)
(5.59993 0.00226514 0)
(5.57985 0.0027589 0)
(5.55662 0.00335449 0)
(5.52978 0.00406759 0)
(5.49885 0.00491711 0)
(5.4633 0.00592288 0)
(5.4226 0.00711034 0)
(5.37613 0.00850356 0)
(5.32331 0.01014 0)
(5.26333 0.0120469 0)
(5.19567 0.0142862 0)
(5.1191 0.0168786 0)
(5.03343 0.0199478 0)
(4.93636 0.0234693 0)
(4.82889 0.0277415 0)
(4.70576 0.0325525 0)
(4.57198 0.0387478 0)
(4.41353 0.0453979 0)
(4.24842 0.0552283 0)
(4.03581 0.0645627 0)
(3.83636 0.0828095 0)
(3.52779 0.0948133 0)
(3.30304 0.137278 0)
(2.7891 0.140472 0)
(2.59382 0.269216 0)
(1.59201 0.211928 0)
(8.07463 0.0239955 0)
(7.76828 0.0159615 0)
(7.23097 0.00916189 0)
(6.83074 0.00528661 0)
(6.59432 0.00350639 0)
(6.45052 0.00264954 0)
(6.3466 0.00215147 0)
(6.26745 0.0018039 0)
(6.20338 0.00155176 0)
(6.15113 0.0013572 0)
(6.10712 0.00120689 0)
(6.06992 0.00108549 0)
(6.03779 0.000987828 0)
(6.00993 0.000906327 0)
(5.98547 0.00083842 0)
(5.96388 0.000780463 0)
(5.94467 0.000731014 0)
(5.9275 0.000688207 0)
(5.91206 0.000651103 0)
(5.89811 0.000618783 0)
(5.88545 0.000590735 0)
(5.87391 0.000566498 0)
(5.86334 0.000546066 0)
(5.85361 0.000529488 0)
(5.8446 0.000517119 0)
(5.8362 0.000509608 0)
(5.82829 0.000507984 0)
(5.82075 0.000513749 0)
(5.81348 0.000528702 0)
(5.80633 0.000555256 0)
(5.79916 0.000596652 0)
(5.79181 0.000656732 0)
(5.7841 0.000739964 0)
(5.77584 0.000851772 0)
(5.76678 0.00099867 0)
(5.7567 0.00118818 0)
(5.74529 0.00142877 0)
(5.73226 0.00173017 0)
(5.71729 0.00210353 0)
(5.7 0.0025615 0)
(5.68 0.00311818 0)
(5.65689 0.00378962 0)
(5.6302 0.00459346 0)
(5.59947 0.005551 0)
(5.56418 0.0066845 0)
(5.52379 0.00802256 0)
(5.47769 0.00959221 0)
(5.42533 0.0114355 0)
(5.36588 0.013583 0)
(5.29887 0.0161041 0)
(5.22305 0.019022 0)
(5.13826 0.0224753 0)
(5.04223 0.0264368 0)
(4.93595 0.0312395 0)
(4.81427 0.0366484 0)
(4.68207 0.0436042 0)
(4.52567 0.0510791 0)
(4.36261 0.0620836 0)
(4.15363 0.0725588 0)
(3.95688 0.0927857 0)
(3.65658 0.106363 0)
(3.43506 0.152755 0)
(2.94249 0.158046 0)
(2.74616 0.295044 0)
(1.83018 0.23802 0)
(8.06438 0.0241357 0)
(7.86809 0.0170221 0)
(7.39553 0.0104924 0)
(6.98598 0.00628301 0)
(6.72697 0.00413939 0)
(6.56981 0.00307857 0)
(6.45957 0.00248039 0)
(6.37645 0.00207301 0)
(6.30959 0.00178016 0)
(6.25523 0.00155521 0)
(6.20956 0.00138173 0)
(6.171 0.0012419 0)
(6.13776 0.00112949 0)
(6.10897 0.00103579 0)
(6.08371 0.000957779 0)
(6.06144 0.000891252 0)
(6.04163 0.000834517 0)
(6.02394 0.000785432 0)
(6.00803 0.000742896 0)
(5.99368 0.000705856 0)
(5.98065 0.000673704 0)
(5.96878 0.000645909 0)
(5.95792 0.000622456 0)
(5.94792 0.000603373 0)
(5.93867 0.000589051 0)
(5.93005 0.000580213 0)
(5.92194 0.000577998 0)
(5.91423 0.00058407 0)
(5.90679 0.00060044 0)
(5.89949 0.000629803 0)
(5.89219 0.000675774 0)
(5.88473 0.000742636 0)
(5.87692 0.000835377 0)
(5.86857 0.000960053 0)
(5.85946 0.00112394 0)
(5.84932 0.00133544 0)
(5.83789 0.00160398 0)
(5.82487 0.00194045 0)
(5.80991 0.00235725 0)
(5.79267 0.00286854 0)
(5.77276 0.00348999 0)
(5.74977 0.00423952 0)
(5.72325 0.00513679 0)
(5.69273 0.0062055 0)
(5.65769 0.00747044 0)
(5.61762 0.00896344 0)
(5.57191 0.0107146 0)
(5.52 0.0127704 0)
(5.46111 0.0151652 0)
(5.39473 0.0179758 0)
(5.31968 0.021228 0)
(5.23578 0.0250753 0)
(5.1408 0.0294883 0)
(5.03571 0.0348346 0)
(4.91548 0.0408566 0)
(4.78484 0.0485924 0)
(4.63042 0.0569092 0)
(4.46947 0.0690972 0)
(4.26439 0.0807396 0)
(4.07069 0.102938 0)
(3.77818 0.118109 0)
(3.5607 0.16829 0)
(3.08792 0.175802 0)
(2.89262 0.319896 0)
(2.04984 0.263809 0)
(8.05022 0.0241852 0)
(7.94496 0.0178801 0)
(7.54431 0.0117799 0)
(7.13754 0.00735998 0)
(6.85859 0.00485778 0)
(6.68593 0.00356151 0)
(6.568 0.00284255 0)
(6.48048 0.00236628 0)
(6.41057 0.00202785 0)
(6.35393 0.00176929 0)
(6.30648 0.00157036 0)
(6.26648 0.00141037 0)
(6.23206 0.00128189 0)
(6.20228 0.00117491 0)
(6.17618 0.00108592 0)
(6.15319 0.00101009 0)
(6.13276 0.000945467 0)
(6.11451 0.000889591 0)
(6.09813 0.000841182 0)
(6.08334 0.000799041 0)
(6.06993 0.000762454 0)
(6.05773 0.000730814 0)
(6.04656 0.000704091 0)
(6.03628 0.000682289 0)
(6.02678 0.000665828 0)
(6.01793 0.000655514 0)
(6.00962 0.000652593 0)
(6.00172 0.000658891 0)
(5.99411 0.000676639 0)
(5.98666 0.000708825 0)
(5.97923 0.000759445 0)
(5.97165 0.000833237 0)
(5.96374 0.000935721 0)
(5.9553 0.00107361 0)
(5.94612 0.00125495 0)
(5.93593 0.00148905 0)
(5.92448 0.00178636 0)
(5.91145 0.00215891 0)
(5.89652 0.00262045 0)
(5.87933 0.0031866 0)
(5.8595 0.00387474 0)
(5.83663 0.00470465 0)
(5.81027 0.00569808 0)
(5.77996 0.00688119 0)
(5.74518 0.00828137 0)
(5.70543 0.00993372 0)
(5.6601 0.0118714 0)
(5.60866 0.0141459 0)
(5.55031 0.0167947 0)
(5.48459 0.0199025 0)
(5.4103 0.0234981 0)
(5.32727 0.0277497 0)
(5.23334 0.0326257 0)
(5.12943 0.0385296 0)
(5.01059 0.0451814 0)
(4.88147 0.0537145 0)
(4.7291 0.0628914 0)
(4.57037 0.0762703 0)
(4.3692 0.0890946 0)
(4.17886 0.113258 0)
(3.89372 0.130046 0)
(3.68072 0.183882 0)
(3.22646 0.193719 0)
(3.03376 0.343928 0)
(2.25329 0.289374 0)
(8.03638 0.0241549 0)
(8.00217 0.0185344 0)
(7.67425 0.0129853 0)
(7.28465 0.00849412 0)
(6.99003 0.00566424 0)
(6.801 0.00410889 0)
(6.67347 0.00324394 0)
(6.58078 0.00268686 0)
(6.50752 0.00229695 0)
(6.4484 0.0020011 0)
(6.39903 0.00177411 0)
(6.35749 0.00159202 0)
(6.3218 0.00144597 0)
(6.29097 0.00132451 0)
(6.26398 0.00122357 0)
(6.24023 0.00113766 0)
(6.21914 0.00106447 0)
(6.20032 0.00100124 0)
(6.18343 0.000946473 0)
(6.1682 0.000898815 0)
(6.15439 0.000857431 0)
(6.14182 0.00082163 0)
(6.13033 0.000791368 0)
(6.11977 0.000766609 0)
(6.11001 0.000747808 0)
(6.10092 0.000735854 0)
(6.09239 0.000732097 0)
(6.08429 0.000738529 0)
(6.07651 0.000757607 0)
(6.0689 0.000792623 0)
(6.06133 0.000847963 0)
(6.05362 0.000928828 0)
(6.04561 0.00104129 0)
(6.03708 0.00119273 0)
(6.02782 0.001392 0)
(6.01759 0.00164935 0)
(6.0061 0.00197626 0)
(5.99307 0.00238594 0)
(5.97815 0.00289351 0)
(5.96102 0.00351614 0)
(5.94127 0.0042729 0)
(5.91852 0.00518555 0)
(5.89231 0.00627792 0)
(5.8622 0.00757875 0)
(5.82768 0.00911805 0)
(5.78825 0.0109343 0)
(5.7433 0.0130639 0)
(5.69232 0.015563 0)
(5.63452 0.0184729 0)
(5.56943 0.021886 0)
(5.49589 0.0258341 0)
(5.41373 0.0305006 0)
(5.32081 0.0358521 0)
(5.21804 0.0423285 0)
(5.10053 0.0496264 0)
(4.97292 0.0589708 0)
(4.82277 0.0690266 0)
(4.66636 0.0836034 0)
(4.46897 0.0976223 0)
(4.28209 0.123746 0)
(4.00405 0.142173 0)
(3.79574 0.199535 0)
(3.35894 0.211777 0)
(3.17008 0.367273 0)
(2.44287 0.31479 0)
(8.02488 0.0240712 0)
(8.04377 0.0190109 0)
(7.78544 0.0140819 0)
(7.4262 0.00965668 0)
(7.12149 0.00655657 0)
(6.91634 0.00472863 0)
(6.77762 0.0036932 0)
(6.67852 0.00303916 0)
(6.60142 0.00258995 0)
(6.53959 0.00225249 0)
(6.48814 0.00199449 0)
(6.44494 0.00178813 0)
(6.4079 0.00162282 0)
(6.37595 0.00148555 0)
(6.34801 0.00137159 0)
(6.32344 0.0012747 0)
(6.30165 0.00119221 0)
(6.28223 0.001121 0)
(6.2648 0.00105934 0)
(6.24909 0.00100571 0)
(6.23486 0.000959133 0)
(6.22192 0.000918825 0)
(6.21009 0.000884729 0)
(6.19923 0.000856753 0)
(6.18919 0.000835389 0)
(6.17985 0.000821613 0)
(6.1711 0.000816876 0)
(6.1628 0.000823337 0)
(6.15483 0.000843688 0)
(6.14705 0.000881534 0)
(6.13933 0.000941658 0)
(6.13149 0.00102974 0)
(6.12336 0.00115241 0)
(6.11474 0.00131775 0)
(6.10541 0.00153545 0)
(6.09512 0.00181669 0)
(6.08359 0.00217403 0)
(6.07055 0.00262192 0)
(6.05565 0.00317686 0)
(6.03855 0.00385762 0)
(6.01889 0.00468502 0)
(5.99624 0.00568281 0)
(5.97019 0.00687702 0)
(5.94028 0.00829896 0)
(5.90601 0.0099814 0)
(5.86689 0.0119662 0)
(5.82231 0.0142931 0)
(5.77177 0.0170231 0)
(5.7145 0.0202013 0)
(5.65004 0.0239281 0)
(5.57723 0.0282382 0)
(5.49591 0.0333308 0)
(5.40397 0.0391707 0)
(5.30229 0.0462358 0)
(5.18609 0.0541944 0)
(5.06004 0.0643625 0)
(4.91216 0.07531 0)
(4.75814 0.0910969 0)
(4.56439 0.106326 0)
(4.381 0.134404 0)
(4.10983 0.154489 0)
(3.90627 0.215251 0)
(3.486 0.229957 0)
(3.30193 0.390041 0)
(2.62071 0.340116 0)
(8.01698 0.0239424 0)
(8.06928 0.0193211 0)
(7.87954 0.015051 0)
(7.55976 0.0108176 0)
(7.2526 0.0075269 0)
(7.03274 0.00542683 0)
(6.88181 0.00419906 0)
(6.77501 0.0034296 0)
(6.69322 0.00291044 0)
(6.62829 0.00252565 0)
(6.57457 0.00223323 0)
(6.52959 0.00200014 0)
(6.49108 0.00181368 0)
(6.45792 0.00165909 0)
(6.42897 0.00153091 0)
(6.40353 0.00142206 0)
(6.381 0.00132945 0)
(6.36093 0.00124958 0)
(6.34293 0.00118044 0)
(6.32672 0.00112033 0)
(6.31205 0.00106812 0)
(6.29871 0.00102292 0)
(6.28652 0.000984666 0)
(6.27533 0.000953186 0)
(6.26501 0.000929014 0)
(6.25541 0.000913218 0)
(6.24641 0.00090734 0)
(6.2379 0.000913709 0)
(6.22973 0.000935263 0)
(6.22179 0.000975931 0)
(6.2139 0.0010409 0)
(6.20593 0.00113633 0)
(6.19767 0.00126945 0)
(6.18895 0.00144904 0)
(6.17954 0.00168566 0)
(6.16918 0.00199147 0)
(6.15762 0.00238012 0)
(6.14455 0.00286732 0)
(6.12966 0.00347101 0)
(6.1126 0.00421159 0)
(6.093 0.00511169 0)
(6.07047 0.00619711 0)
(6.04456 0.00749612 0)
(6.01484 0.0090427 0)
(5.98081 0.0108724 0)
(5.94198 0.0130306 0)
(5.89777 0.0155604 0)
(5.84767 0.0185279 0)
(5.79091 0.0219818 0)
(5.72705 0.0260309 0)
(5.65495 0.0307131 0)
(5.57443 0.0362436 0)
(5.48342 0.0425866 0)
(5.38277 0.0502533 0)
(5.26795 0.0588874 0)
(5.14353 0.0698909 0)
(4.99788 0.0817433 0)
(4.84625 0.0987541 0)
(4.65604 0.115211 0)
(4.47608 0.145234 0)
(4.21158 0.166996 0)
(4.01279 0.231033 0)
(3.60818 0.248242 0)
(3.42961 0.412316 0)
(2.78863 0.365399 0)
(8.01298 0.0237931 0)
(8.0746 0.0194839 0)
(7.95543 0.0158585 0)
(7.68117 0.0119412 0)
(7.38248 0.00855836 0)
(7.1506 0.00620647 0)
(6.98699 0.00476943 0)
(6.87141 0.00386563 0)
(6.78398 0.00326356 0)
(6.71533 0.00282382 0)
(6.65899 0.00249233 0)
(6.61205 0.00222965 0)
(6.57197 0.00201995 0)
(6.53751 0.00184634 0)
(6.50746 0.00170262 0)
(6.4811 0.0015807 0)
(6.45777 0.00147706 0)
(6.437 0.00138775 0)
(6.4184 0.00131048 0)
(6.40165 0.00124334 0)
(6.3865 0.001185 0)
(6.37275 0.00113451 0)
(6.36018 0.00109173 0)
(6.34865 0.00105643 0)
(6.33802 0.00102918 0)
(6.32814 0.00101114 0)
(6.31889 0.00100394 0)
(6.31015 0.00101008 0)
(6.30178 0.00103276 0)
(6.29364 0.00107623 0)
(6.28559 0.0011461 0)
(6.27747 0.00124902 0)
(6.26909 0.00139282 0)
(6.26025 0.00158703 0)
(6.25075 0.00184307 0)
(6.24032 0.00217413 0)
(6.22871 0.00259499 0)
(6.21561 0.00312263 0)
(6.20073 0.00377649 0)
(6.1837 0.00457864 0)
(6.16416 0.00555358 0)
(6.14172 0.0067292 0)
(6.11595 0.00813607 0)
(6.08641 0.00981092 0)
(6.05261 0.0117922 0)
(6.01407 0.0141288 0)
(5.97021 0.0168672 0)
(5.92052 0.0200789 0)
(5.86426 0.0238163 0)
(5.80098 0.0281968 0)
(5.72955 0.0332616 0)
(5.6498 0.0392432 0)
(5.55966 0.0461021 0)
(5.46005 0.0543832 0)
(5.34667 0.0637059 0)
(5.22389 0.0755572 0)
(5.0804 0.0883308 0)
(4.93113 0.106579 0)
(4.74438 0.124281 0)
(4.56777 0.156241 0)
(4.30976 0.179695 0)
(4.1157 0.246884 0)
(3.72595 0.266622 0)
(3.55335 0.434163 0)
(2.94812 0.390673 0)
(8.01207 0.023648 0)
(8.06654 0.019533 0)
(8.01198 0.0164805 0)
(7.78755 0.0129854 0)
(7.50934 0.00962354 0)
(7.26986 0.00706633 0)
(7.09382 0.00541122 0)
(6.96862 0.00435453 0)
(6.87471 0.00365547 0)
(6.80162 0.00315148 0)
(6.74214 0.00277496 0)
(6.6929 0.00247868 0)
(6.65109 0.0022431 0)
(6.61522 0.00204868 0)
(6.584 0.00188792 0)
(6.55664 0.00175169 0)
(6.53245 0.001636 0)
(6.51094 0.00153641 0)
(6.49169 0.00145028 0)
(6.47437 0.00137549 0)
(6.45872 0.00131049 0)
(6.44451 0.00125423 0)
(6.43154 0.00120654 0)
(6.41964 0.00116706 0)
(6.40868 0.00113643 0)
(6.39851 0.00111591 0)
(6.389 0.00110719 0)
(6.38001 0.00111294 0)
(6.37142 0.00113664 0)
(6.36309 0.00118289 0)
(6.35486 0.0012577 0)
(6.34658 0.00136825 0)
(6.33805 0.00152297 0)
(6.3291 0.00173215 0)
(6.31949 0.00200815 0)
(6.30899 0.00236517 0)
(6.29732 0.00281914 0)
(6.28419 0.00338839 0)
(6.2693 0.00409389 0)
(6.25229 0.00495942 0)
(6.23281 0.0060114 0)
(6.21045 0.00727988 0)
(6.18481 0.0087978 0)
(6.15544 0.0106047 0)
(6.12186 0.0127419 0)
(6.08359 0.0152621 0)
(6.04006 0.0182152 0)
(5.99077 0.021678 0)
(5.93499 0.0257071 0)
(5.87225 0.0304286 0)
(5.80146 0.0358876 0)
(5.72242 0.0423327 0)
(5.63314 0.0497201 0)
(5.53464 0.0586279 0)
(5.42269 0.068651 0)
(5.30153 0.0813656 0)
(5.16015 0.0950775 0)
(5.01317 0.114576 0)
(4.82981 0.13354 0)
(4.65648 0.167427 0)
(4.40475 0.192589 0)
(4.21535 0.262807 0)
(3.83977 0.285086 0)
(3.67335 0.455629 0)
(3.10038 0.415958 0)
(8.01296 0.0235181 0)
(8.05518 0.0194959 0)
(8.0506 0.0169144 0)
(7.87983 0.0139193 0)
(7.6298 0.0106922 0)
(7.38978 0.00799785 0)
(7.20278 0.00612933 0)
(7.06736 0.00490363 0)
(6.96614 0.00409242 0)
(6.88798 0.00351386 0)
(6.82485 0.00308527 0)
(6.77285 0.00275031 0)
(6.729 0.00248537 0)
(6.69153 0.00226762 0)
(6.65903 0.00208811 0)
(6.63059 0.00193627 0)
(6.60548 0.00180738 0)
(6.58316 0.00169656 0)
(6.56321 0.00160075 0)
(6.54529 0.00151763 0)
(6.52909 0.00144537 0)
(6.5144 0.00138282 0)
(6.501 0.00132979 0)
(6.48871 0.00128573 0)
(6.47741 0.0012514 0)
(6.46692 0.00122812 0)
(6.45712 0.00121764 0)
(6.44787 0.00122283 0)
(6.43905 0.00124745 0)
(6.4305 0.00129644 0)
(6.42209 0.00137622 0)
(6.41363 0.00149451 0)
(6.40496 0.00166038 0)
(6.39588 0.00188491 0)
(6.38616 0.0021814 0)
(6.37557 0.0025651 0)
(6.36383 0.00305314 0)
(6.35066 0.00366522 0)
(6.33575 0.00442386 0)
(6.31875 0.00535465 0)
(6.29931 0.00648596 0)
(6.27704 0.00785005 0)
(6.25151 0.0094823 0)
(6.2223 0.0114251 0)
(6.18892 0.0137229 0)
(6.15091 0.016432 0)
(6.10769 0.0196062 0)
(6.05878 0.0233274 0)
(6.00344 0.0276568 0)
(5.94122 0.0327294 0)
(5.87102 0.0385944 0)
(5.79267 0.0455146 0)
(5.70431 0.053443 0)
(5.60693 0.0629883 0)
(5.49637 0.0737267 0)
(5.3768 0.0873205 0)
(5.23747 0.101988 0)
(5.09272 0.122749 0)
(4.91266 0.142994 0)
(4.74252 0.178798 0)
(4.4969 0.205681 0)
(4.31207 0.278808 0)
(3.95001 0.303631 0)
(3.78982 0.476748 0)
(3.24636 0.441267 0)
(8.01431 0.0234005 0)
(8.04688 0.0193985 0)
(8.07295 0.0171764 0)
(7.95799 0.0147187 0)
(7.73919 0.0117246 0)
(7.50878 0.00897961 0)
(7.31396 0.00692485 0)
(7.16823 0.00552007 0)
(7.05895 0.00458116 0)
(6.97506 0.00391625 0)
(6.90778 0.00342779 0)
(6.85263 0.00304855 0)
(6.80634 0.00274979 0)
(6.76697 0.00250562 0)
(6.73298 0.00230494 0)
(6.70333 0.00213568 0)
(6.67723 0.00199238 0)
(6.65404 0.00186933 0)
(6.63335 0.00176292 0)
(6.61476 0.0016707 0)
(6.59798 0.0015905 0)
(6.58277 0.00152111 0)
(6.56891 0.00146224 0)
(6.55621 0.00141317 0)
(6.54453 0.00137475 0)
(6.5337 0.00134842 0)
(6.52359 0.00133594 0)
(6.51407 0.00134035 0)
(6.505 0.00136575 0)
(6.49623 0.00141743 0)
(6.48761 0.00150221 0)
(6.47897 0.00162836 0)
(6.47014 0.00180562 0)
(6.46091 0.00204587 0)
(6.45107 0.0023634 0)
(6.44038 0.00277453 0)
(6.42857 0.00329761 0)
(6.41534 0.00395376 0)
(6.40041 0.00476713 0)
(6.38341 0.00576511 0)
(6.364 0.0069781 0)
(6.34179 0.00844066 0)
(6.31637 0.0101907 0)