/*--------------------------------*- C++ -*----------------------------------*\
| =========                 |                                                 |
| \\      /  F ield         | OpenFOAM: The Open Source CFD Toolbox           |
|  \\    /   O peration     | Version:  v1906                                 |
|   \\  /    A nd           | Web:      www.OpenFOAM.com                      |
|    \\/     M anipulation  |                                                 |
\*---------------------------------------------------------------------------*/
FoamFile
{
    version     2.0;
    format      ascii;
    class       volScalarField;
    location    "0.3";
    object      yPlus;
}
// * * * * * * * * * * * * * * * * * * * * * * * * * * * * * * * * * * * * * //

dimensions      [0 0 0 0 0 0 0];


internalField   uniform 0;

boundaryField
{
    inlet
    {
        type            calculated;
        value           nonuniform List<scalar> 
200
(
359.74
513.864
428.225
345.092
263.363
184.287
109.426
35.1061
31.1213
39.4747
37.9454
36.2718
32.3474
28.3861
28.7612
30.8742
31.323
31.4881
31.7891
31.9364
31.9594
31.8925
31.7876
31.6782
31.5803
31.4908
31.4018
31.3086
31.2113
31.1091
31.0042
30.8959
30.781
30.6659
30.5438
30.418
30.2884
30.1513
30.0101
29.8645
29.7145
29.5599
29.3969
29.229
29.0559
28.8738
28.6899
28.4966
28.2934
28.088
27.8723
27.6501
27.4211
27.1851
26.9377
26.6871
26.4245
26.154
25.8754
25.5838
25.3107
25.0559
24.8016
24.5476
24.2993
24.0517
23.8047
23.5639
23.3241
23.0852
22.8533
22.6228
22.3937
22.1725
21.9532
21.7359
21.5209
21.3151
21.1122
20.9123
20.7231
20.53
20.3563
20.1792
20.0149
19.8558
19.7023
19.5546
19.422
19.2962
19.1866
19.0757
18.9819
18.8966
18.8295
18.7619
18.7132
18.674
18.6543
18.6444
18.6444
18.6543
18.674
18.7132
18.7619
18.8295
18.8966
18.9819
19.0757
19.1866
19.2962
19.422
19.5546
19.7023
19.8558
20.0149
20.1792
20.3563
20.53
20.7231
20.9123
21.1122
21.3151
21.5209
21.7359
21.9532
22.1725
22.3937
22.6228
22.8533
23.0852
23.3241
23.5639
23.8047
24.0517
24.2993
24.5476
24.8016
25.0559
25.3107
25.5838
25.8754
26.154
26.4245
26.6871
26.9377
27.1851
27.4211
27.6501
27.8723
28.088
28.2934
28.4966
28.6899
28.8738
29.0559
29.229
29.3969
29.5599
29.7145
29.8645
30.0101
30.1513
30.2884
30.418
30.5438
30.6659
30.781
30.8959
31.0042
31.1091
31.2113
31.3086
31.4019
31.491
31.5804
31.6781
31.7875
31.8926
31.9563
31.9357
31.7876
31.4914
31.3239
30.8778
28.7613
28.386
32.3474
36.2718
37.9454
39.4746
31.1213
35.1061
109.426
184.287
263.363
345.092
428.225
513.864
359.74
)
;
    }
    outlet
    {
        type            calculated;
        value           uniform 0;
    }
    topWall
    {
        type            calculated;
        value           nonuniform List<scalar> 
400
(
10.5698
9.38881
9.04035
8.83063
8.66051
8.535
8.43517
8.35592
8.28958
8.23447
8.18712
8.14657
8.11108
8.08002
8.05247
8.02797
8.00603
7.9863
7.96849
7.95234
7.93765
7.92428
7.91209
7.90099
7.89088
7.88173
7.8735
7.86624
7.85994
7.85467
7.85057
7.84775
7.84637
7.84657
7.8486
7.85278
7.8594
7.86874
7.88115
7.89695
7.91641
7.93988
7.96755
7.99967
8.03639
8.07776
8.12384
8.17456
8.22976
8.28928
8.35283
8.42009
8.49069
8.56421
8.64027
8.71834
8.79809
8.87887
8.96063
9.04232
9.12471
9.20538
9.28763
9.36504
9.44682
9.48497
9.47618
9.46716
9.45785
9.44843
9.43957
9.43132
9.42356
9.41623
9.40921
9.40243
9.39583
9.38938
9.38302
9.37671
9.37041
9.36411
9.35778
9.3514
9.34497
9.33847
9.3319
9.32526
9.31856
9.3118
9.30497
9.29808
9.29114
9.28414
9.2771
9.27002
9.26291
9.25578
9.24861
9.24143
9.23422
9.22697
9.21969
9.21236
9.20498
9.19752
9.18996
9.18232
9.17456
9.16669
9.15869
9.15058
9.14233
9.13396
9.12547
9.11685
9.1081
9.09925
9.09027
9.0812
9.07202
9.06276
9.0534
9.04397
9.03447
9.02491
9.01529
9.00563
8.99591
8.98617
8.9764
8.96661
8.9568
8.94698
8.93715
8.92733
8.91752
8.90772
8.89794
8.88819
8.87846
8.86876
8.85909
8.84948
8.8399
8.83037
8.8209
8.81148
8.80213
8.79283
8.78359
8.77443
8.76533
8.7563
8.74735
8.73848
8.72968
8.72097
8.71233
8.70378
8.69531
8.68692
8.67863
8.67042
8.6623
8.65427
8.64634
8.63849
8.63074
8.62307
8.61551
8.60804
8.60066
8.59338
8.58619
8.5791
8.57211
8.56522
8.55842
8.55173
8.54514
8.53866
8.53225
8.52613
8.51966
8.52677
8.5465
8.56648
8.58625
8.60584
8.62534
8.64473
8.66407
8.68337
8.70266
8.72196
8.74129
8.76064
8.78001
8.79941
8.81884
8.83827
8.85773
8.87719
8.89667
8.91613
8.93559
8.95504
8.97445
8.99384
9.01318
9.03248
9.0517
9.07087
9.08995
9.10894
9.12782
9.14659
9.16524
9.18374
9.20209
9.22028
9.2383
9.25612
9.27374
9.29114
9.30831
9.32524
9.34192
9.35831
9.37444
9.39026
9.40577
9.42095
9.43578
9.45026
9.46435
9.47807
9.49137
9.50427
9.51676
9.52882
9.54045
9.55162
9.56235
9.57262
9.58241
9.59172
9.60055
9.6089
9.61674
9.62408
9.63091
9.63723
9.64304
9.64833
9.6531
9.65734
9.66105
9.66422
9.66679
9.66872
9.67006
9.67083
9.67109
9.67087
9.67018
9.66902
9.6674
9.66533
9.66283
9.65989
9.65653
9.65276
9.64856
9.64395
9.63897
9.63361
9.62792
9.6219
9.6156
9.60903
9.60221
9.59517
9.5879
9.58043
9.57276
9.56493
9.55699
9.54895
9.54086
9.53274
9.52463
9.51653
9.50849
9.50052
9.49268
9.48502
9.47754
9.47026
9.46318
9.45632
9.44964
9.44319
9.43698
9.43106
9.42543
9.4201
9.41509
9.41042
9.40609
9.40217
9.39864
9.39555
9.39292
9.39077
9.38913
9.38803
9.38748
9.3875
9.38804
9.38913
9.39086
9.39324
9.39632
9.40011
9.40464
9.40985
9.41599
9.42261
9.43059
9.43838
9.44893
9.45679
9.47214
9.45474
9.40634
9.36379
9.32107
9.27858
9.23598
9.1933
9.15071
9.10833
9.06625
9.02458
8.98347
8.94303
8.90336
8.86461
8.82691
8.79037
8.75511
8.72128
8.68891
8.65811
8.62895
8.60145
8.57562
8.55149
8.52901
8.50818
8.48894
8.47128
8.45511
8.44037
8.42697
8.4148
8.40377
8.39372
8.3846
8.37629
8.36869
8.36175
8.35532
8.34934
8.3437
8.33838
8.33327
8.3283
8.3234
8.31854
8.31373
8.309
8.30432
8.29971
8.29525
8.29114
8.28767
8.28517
8.2839
8.28404
8.2856
8.28841
8.29255
8.2973
8.30417
8.30821
8.31125
8.81337
)
;
    }
    bottomWall
    {
        type            calculated;
        value           nonuniform List<scalar> 
400
(
10.5698
9.38881
9.04036
8.83063
8.66051
8.535
8.43517
8.35592
8.28958
8.23447
8.18712
8.14658
8.11109
8.08002
8.05245
8.02797
8.00599
7.98627
7.96841
7.9522
7.93742
7.92387
7.91142
7.89992
7.8892
7.87913
7.86959
7.86042
7.85145
7.84251
7.83341
7.82391
7.81372
7.8026
7.79016
7.77605
7.75984
7.74108
7.71922
7.69372
7.66392
7.6292
7.58876
7.54181
7.48743
7.42471
7.35246
7.26963
7.1746
7.06626
6.94209
6.80135
6.63926
6.45692
6.24347
6.00709
5.71851
5.4108
4.99518
4.56293
3.86193
3.26885
2.08529
1.64402
2.6105
2.73439
3.85072
4.28574
4.8398
5.26484
5.61529
5.90984
6.1597
6.37598
6.56183
6.72023
6.85766
6.9797
7.09021
7.19164
7.28558
7.37315
7.45518
7.53233
7.60517
7.67415
7.73968
7.8021
7.86174
7.91884
7.97368
8.02646
8.0774
8.12668
8.17447
8.22093
8.26617
8.31036
8.35357
8.39589
8.43739
8.47814
8.51816
8.55748
8.59613
8.6341
8.67142
8.70809
8.74411
8.7795
8.81426
8.84841
8.88196
8.91492
8.94731
8.97912
9.01038
9.04111
9.07131
9.10101
9.1302
9.15891
9.18715
9.21492
9.24225
9.26913
9.2956
9.32166
9.34736
9.37273
9.39784
9.42276
9.44756
9.4723
9.49706
9.52189
9.54686
9.57202
9.59744
9.62315
9.64921
9.67567
9.70256
9.7299
9.75774
9.78609
9.81499
9.84448
9.87457
9.9053
9.93662
9.96857
10.0011
10.0343
10.0681
10.1024
10.1373
10.1729
10.2092
10.2464
10.2846
10.3241
10.3649
10.4071
10.4508
10.4961
10.5433
10.5927
10.6446
10.6992
10.7565
10.8166
10.8796
10.9456
11.0152
11.0888
11.1673
11.252
11.3448
11.4447
11.5619
11.6845
11.9081
11.9448
12.6537
11.8285
8.14082
3.23545
4.29276
4.01295
4.36067
4.34039
4.55686
4.62499
4.75663
4.83311
4.92928
4.99842
5.06705
5.11998
5.16907
5.20958
5.24674
5.27849
5.3071
5.33236
5.35566
5.37631
5.39478
5.41113
5.42493
5.43633
5.44557
5.45358
5.46013
5.4651
5.46823
5.46998
5.47117
5.4722
5.47281
5.47221
5.47029
5.46768
5.46517
5.46208
5.45759
5.45208
5.44607
5.4391
5.43114
5.42274
5.41356
5.40364
5.39287
5.38116
5.36866
5.35506
5.34099
5.32588
5.3101
5.29349
5.27607
5.2578
5.23864
5.21887
5.19792
5.1763
5.15337
5.12998
5.1058
5.08015
5.05396
5.02711
4.99897
4.97022
4.9411
4.91091
4.87964
4.84811
4.81632
4.78331
4.74907
4.71474
4.68072
4.64585
4.60953
4.57269
4.53646
4.5005
4.46365
4.42544
4.38642
4.34746
4.30893
4.27066
4.23216
4.19291
4.15275
4.11187
4.07058
4.02943
3.98879
3.94875
3.90908
3.86954
3.83007
3.79082
3.75193
3.71338
3.67504
3.63691
3.59914
3.56168
3.52447
3.48756
3.45121
3.41583
3.38161
3.34842
3.31579
3.28313
3.25077
3.21947
3.18979
3.16008
3.13067
3.10261
3.07525
3.04809
3.02268
2.99641
2.97292
2.94775
2.9263
2.90252
2.8834
2.85914
2.84365
2.81917
2.80771
2.78039
2.77229
2.73083
2.74465
2.71942
2.74758
2.68373
2.73708
2.64011
2.72475
2.60232
2.6947
2.53784
2.74681
3.18375
3.18251
3.26908
3.49867
3.55898
3.72969
3.80451
3.93965
4.02528
4.14161
4.23325
4.34017
4.43474
4.5365
4.63183
4.73006
4.82442
4.91926
5.01116
5.10207
5.19029
5.27668
5.36039
5.44153
5.52015
5.59645
5.67009
5.7413
5.81007
5.87657
5.94083
6.00285
6.06266
6.12032
6.17594
6.22967
6.28166
6.33196
6.38059
6.42749
6.4727
6.51306
6.54722
6.5802
6.61262
6.64427
6.67504
6.7049
6.73372
6.76134
6.78769
6.81264
6.83612
6.85797
6.87803
6.89613
6.91217
6.92598
6.93777
6.94713
6.95495
6.95865
6.96538
6.9489
7.53213
)
;
    }
    defaultFaces
    {
        type            empty;
    }
}


// ************************************************************************* //
