/*--------------------------------*- C++ -*----------------------------------*\
| =========                 |                                                 |
| \\      /  F ield         | OpenFOAM: The Open Source CFD Toolbox           |
|  \\    /   O peration     | Version:  v1906                                 |
|   \\  /    A nd           | Web:      www.OpenFOAM.com                      |
|    \\/     M anipulation  |                                                 |
\*---------------------------------------------------------------------------*/
FoamFile
{
    version     2.0;
    format      ascii;
    class       volScalarField;
    location    "0.1";
    object      k;
}
// * * * * * * * * * * * * * * * * * * * * * * * * * * * * * * * * * * * * * //

dimensions      [0 2 -2 0 0 0 0];


internalField   nonuniform List<scalar> 
80000
(
0.357638
0.282182
0.261625
0.249626
0.240101
0.233192
0.227769
0.223509
0.219974
0.217059
0.214569
0.212449
0.210603
0.208995
0.207577
0.206321
0.205194
0.204171
0.203225
0.202332
0.201469
0.200618
0.199767
0.19891
0.198047
0.197182
0.196326
0.195486
0.194672
0.193889
0.193142
0.192426
0.191734
0.191053
0.190366
0.189649
0.188879
0.188025
0.187057
0.185941
0.184641
0.183121
0.18134
0.17926
0.176836
0.174026
0.17078
0.167056
0.162791
0.15795
0.152446
0.146271
0.139268
0.131538
0.122721
0.113253
0.10218
0.0909525
0.0767304
0.0632582
0.0444242
0.0313094
0.0124624
0.00853348
0.0202002
0.327573
0.40962
0.380999
0.359625
0.347555
0.339385
0.333014
0.327911
0.323701
0.32019
0.317204
0.314641
0.312414
0.310466
0.308749
0.307226
0.305865
0.304635
0.303507
0.302451
0.301441
0.300453
0.299469
0.298476
0.29747
0.296452
0.295432
0.294419
0.293427
0.292466
0.291545
0.290667
0.289833
0.289033
0.288258
0.287488
0.286704
0.285881
0.284991
0.284005
0.282892
0.281617
0.280148
0.278447
0.276479
0.274204
0.271581
0.268566
0.265113
0.261168
0.256684
0.251578
0.245808
0.239234
0.231859
0.223349
0.213945
0.202621
0.190413
0.173377
0.159709
0.129651
0.120147
0.0564927
0.0433775
0.19282
0.364451
0.364286
0.345446
0.33438
0.327555
0.32241
0.318234
0.31477
0.311846
0.309348
0.307188
0.305304
0.303647
0.302183
0.300882
0.299721
0.298673
0.297717
0.296828
0.295981
0.295154
0.294329
0.293491
0.292635
0.291757
0.290866
0.289969
0.28908
0.288211
0.287372
0.286573
0.285817
0.285103
0.284427
0.283779
0.283144
0.282508
0.281852
0.281154
0.280393
0.279547
0.278591
0.277502
0.276256
0.274825
0.273187
0.271309
0.26917
0.266728
0.26397
0.26082
0.257299
0.253242
0.248798
0.243491
0.23796
0.230649
0.22399
0.2122
0.206017
0.18156
0.184107
0.11459
0.107121
0.119306
0.325447
0.350721
0.336364
0.326131
0.320162
0.31585
0.312328
0.30938
0.306858
0.304688
0.302795
0.301135
0.299666
0.298364
0.297205
0.296169
0.295237
0.294389
0.293604
0.292859
0.292133
0.291404
0.290659
0.289888
0.289088
0.288262
0.287421
0.286576
0.285742
0.284932
0.284157
0.283426
0.282742
0.282103
0.281506
0.280942
0.280399
0.279863
0.279318
0.278749
0.278138
0.277467
0.276719
0.275874
0.274916
0.273826
0.272582
0.271172
0.269563
0.267757
0.265687
0.263395
0.260725
0.257859
0.254331
0.250838
0.245827
0.241898
0.233138
0.230342
0.20996
0.217699
0.153888
0.154542
0.0721795
0.287299
0.336643
0.328576
0.319654
0.314476
0.310889
0.307952
0.305465
0.303301
0.30142
0.299762
0.298296
0.29699
0.295827
0.294788
0.29386
0.293025
0.29227
0.291572
0.290913
0.290268
0.289619
0.288948
0.288244
0.2875
0.286723
0.285918
0.2851
0.284284
0.283486
0.282719
0.281995
0.28132
0.280698
0.280127
0.279602
0.279114
0.278653
0.278208
0.277766
0.277312
0.276833
0.276315
0.275745
0.275108
0.274392
0.273582
0.272669
0.27163
0.270471
0.269138
0.267678
0.265952
0.264146
0.261832
0.25968
0.256257
0.254037
0.247552
0.246751
0.22986
0.239894
0.183795
0.193804
0.0397856
0.248317
0.320035
0.320114
0.313233
0.308961
0.306101
0.303755
0.301733
0.299934
0.298344
0.296923
0.295652
0.294509
0.293485
0.292566
0.291743
0.291006
0.290339
0.289727
0.289149
0.288583
0.288008
0.287405
0.286762
0.286071
0.285335
0.284563
0.283766
0.282963
0.282171
0.281407
0.280683
0.280011
0.279395
0.278837
0.278336
0.277884
0.277476
0.277101
0.276749
0.276409
0.27607
0.275722
0.275354
0.274955
0.274517
0.274028
0.273485
0.272868
0.272192
0.271408
0.270567
0.26955
0.26853
0.267133
0.265969
0.263767
0.262762
0.258126
0.25868
0.245045
0.256208
0.208401
0.224092
0.0175366
0.208014
0.300046
0.31034
0.306359
0.303201
0.30112
0.299396
0.297864
0.296449
0.295165
0.293992
0.292926
0.291954
0.291076
0.290281
0.28957
0.288931
0.288357
0.287832
0.287336
0.286848
0.286346
0.285811
0.285227
0.284586
0.283891
0.283148
0.282372
0.281581
0.280794
0.280029
0.279304
0.27863
0.278016
0.277465
0.276977
0.27655
0.276178
0.275854
0.275569
0.275315
0.275082
0.274863
0.274649
0.274432
0.274207
0.273965
0.273706
0.273417
0.273112
0.272753
0.27239
0.271923
0.271511
0.27083
0.270424
0.26919
0.269092
0.265977
0.267523
0.25689
0.268565
0.229003
0.246209
0.00163251
0.167161
0.276337
0.298964
0.298788
0.297029
0.295812
0.294756
0.293745
0.292741
0.291785
0.290878
0.290029
0.289239
0.288515
0.287854
0.287259
0.286725
0.286248
0.285812
0.285401
0.284993
0.284565
0.284097
0.283573
0.282982
0.282327
0.281615
0.28086
0.28008
0.279298
0.278533
0.277805
0.277128
0.276512
0.275963
0.275484
0.275073
0.274727
0.27444
0.274205
0.274016
0.273865
0.273746
0.273652
0.273578
0.273519
0.273471
0.273436
0.273403
0.27339
0.273367
0.27338
0.273348
0.273414
0.273301
0.273485
0.273029
0.273625
0.271769
0.274101
0.266162
0.277959
0.246188
0.262225
0.000262447
0.128964
0.24892
0.285542
0.290339
0.29034
0.290108
0.289778
0.28933
0.288768
0.288163
0.28754
0.286925
0.28633
0.285771
0.285252
0.284781
0.284359
0.283982
0.283641
0.283317
0.282991
0.28264
0.282241
0.281777
0.281238
0.280625
0.279944
0.27921
0.278443
0.277666
0.276902
0.276171
0.275489
0.27487
0.274321
0.273846
0.273446
0.273118
0.272858
0.272662
0.272523
0.272435
0.272394
0.272395
0.272433
0.272506
0.272612
0.272754
0.272926
0.273146
0.27339
0.273704
0.274018
0.274462
0.274803
0.275452
0.275621
0.276774
0.275971
0.278964
0.273389
0.285075
0.260388
0.27414
8.58427e-05
0.0957919
0.218429
0.269669
0.280853
0.283051
0.283959
0.284427
0.284588
0.284503
0.284276
0.28396
0.283596
0.28321
0.282828
0.28246
0.282123
0.281819
0.28155
0.281307
0.281075
0.280835
0.280562
0.280234
0.279833
0.279347
0.278776
0.278128
0.277417
0.276664
0.275894
0.275131
0.274397
0.273711
0.273088
0.272537
0.272063
0.271669
0.271354
0.271114
0.270947
0.270846
0.270808
0.270829
0.270905
0.271032
0.271211
0.27144
0.271725
0.272061
0.272468
0.272926
0.27348
0.274072
0.274817
0.27552
0.276537
0.277217
0.278824
0.278928
0.282463
0.278941
0.290422
0.272049
0.283358
7.35242e-05
0.0680061
0.185693
0.250971
0.270039
0.27507
0.277318
0.278672
0.279496
0.279926
0.280109
0.280122
0.280028
0.279867
0.279675
0.279471
0.279275
0.279097
0.278942
0.278803
0.278668
0.278516
0.278325
0.27807
0.277734
0.277303
0.276778
0.276164
0.275477
0.274741
0.273979
0.273218
0.272483
0.271793
0.271165
0.270611
0.270136
0.269746
0.269439
0.269214
0.269068
0.268997
0.268999
0.269068
0.269203
0.269402
0.269666
0.269994
0.270394
0.270863
0.27142
0.272051
0.272798
0.273612
0.274596
0.27559
0.276906
0.278015
0.280011
0.28089
0.284865
0.283146
0.294368
0.281554
0.290723
2.14298e-05
0.0452679
0.152502
0.229304
0.257542
0.2663
0.270135
0.27248
0.274029
0.27502
0.275644
0.276014
0.276211
0.276292
0.276304
0.276274
0.276231
0.276187
0.276153
0.276124
0.27609
0.276032
0.275926
0.275748
0.275479
0.275106
0.274627
0.27405
0.27339
0.272671
0.27192
0.271163
0.270427
0.269734
0.269102
0.268544
0.268068
0.267678
0.267376
0.267162
0.267032
0.266985
0.267016
0.267124
0.267307
0.267564
0.267896
0.268304
0.268797
0.269373
0.270051
0.270823
0.271723
0.272716
0.273891
0.27512
0.276686
0.278161
0.280493
0.282043
0.286375
0.286207
0.297168
0.289172
0.296727
1.5196e-05
0.027252
0.121002
0.20482
0.24297
0.256509
0.26235
0.265816
0.268163
0.269763
0.270866
0.27162
0.272131
0.272474
0.272705
0.272862
0.272982
0.273082
0.273176
0.273265
0.273337
0.273377
0.27336
0.273262
0.273064
0.272751
0.272322
0.271784
0.271153
0.270454
0.269715
0.268964
0.268228
0.267533
0.266898
0.266336
0.265857
0.265467
0.265168
0.26496
0.264843
0.264813
0.264868
0.265007
0.265228
0.265531
0.265919
0.266392
0.266959
0.267623
0.268399
0.269283
0.270307
0.271442
0.272772
0.274202
0.27598
0.277775
0.280391
0.28251
0.28714
0.288285
0.299003
0.295121
0.301673
4.52853e-05
0.0136856
0.0923318
0.177907
0.22599
0.245407
0.253846
0.258639
0.261867
0.264132
0.265755
0.266925
0.267775
0.268399
0.268867
0.269226
0.26952
0.269773
0.270005
0.270217
0.270402
0.270545
0.270622
0.270608
0.270484
0.270234
0.269858
0.269362
0.268763
0.268086
0.267361
0.266617
0.265885
0.265189
0.26455
0.263984
0.263502
0.263111
0.262814
0.262611
0.262502
0.262485
0.262559
0.262722
0.262974
0.263315
0.263747
0.264273
0.264901
0.265636
0.266491
0.267465
0.268588
0.26984
0.271302
0.272902
0.274866
0.276937
0.279794
0.282387
0.28727
0.289516
0.300013
0.299586
0.305739
0.000213636
0.00406233
0.0669004
0.149502
0.206409
0.232651
0.244425
0.250875
0.25511
0.258102
0.26029
0.26191
0.263127
0.264055
0.264777
0.265353
0.265835
0.266252
0.26663
0.266974
0.267279
0.26753
0.267705
0.267779
0.267733
0.267551
0.26723
0.266779
0.266215
0.265563
0.264854
0.264121
0.263392
0.262697
0.262056
0.261487
0.261002
0.260609
0.260312
0.260112
0.260009
0.260002
0.260091
0.260273
0.26055
0.26092
0.261389
0.261958
0.262636
0.263428
0.264348
0.265395
0.266599
0.267951
0.269526
0.271277
0.273401
0.275706
0.278769
0.281755
0.286853
0.290019
0.300315
0.302734
0.309022
0.000599718
0.00100462
0.0450924
0.121244
0.184254
0.217897
0.233833
0.242385
0.247832
0.251644
0.254446
0.256555
0.25817
0.259425
0.260422
0.261231
0.261914
0.262508
0.263042
0.263526
0.263958
0.264324
0.264603
0.26477
0.264806
0.264695
0.264434
0.264031
0.263504
0.26288
0.262191
0.261469
0.260747
0.260054
0.259412
0.258841
0.258353
0.257958
0.25766
0.257461
0.257362
0.257363
0.257463
0.257661
0.257957
0.258353
0.258851
0.259455
0.260174
0.261013
0.261985
0.263092
0.264367
0.265806
0.267481
0.269365
0.271627
0.274127
0.27737
0.280683
0.285961
0.289893
0.30001
0.304715
0.311562
0.000808942
0.00025933
0.0274152
0.0945218
0.159804
0.200859
0.221776
0.232982
0.239922
0.244701
0.248198
0.250838
0.252882
0.254492
0.255785
0.256845
0.257745
0.258528
0.25923
0.259863
0.260429
0.260918
0.261306
0.261572
0.261695
0.261659
0.261461
0.26111
0.260625
0.260032
0.259364
0.258657
0.257943
0.257254
0.256612
0.25604
0.25555
0.255152
0.254853
0.254655
0.254559
0.254566
0.254674
0.254884
0.255197
0.255612
0.256135
0.256769
0.257521
0.258399
0.259414
0.260574
0.261912
0.26343
0.265194
0.267193
0.269575
0.272241
0.275638
0.279226
0.284653
0.289219
0.299179
0.305673
0.313374
0.000892445
8.33151e-05
0.0140392
0.0700893
0.133991
0.181406
0.207943
0.222437
0.231233
0.237176
0.241484
0.244729
0.247243
0.249235
0.250848
0.25218
0.253313
0.254299
0.25518
0.255973
0.256682
0.257301
0.257806
0.258175
0.258391
0.258434
0.258305
0.25801
0.257569
0.25701
0.256368
0.255677
0.254975
0.25429
0.253651
0.253078
0.252586
0.252187
0.251886
0.251688
0.251595
0.251605
0.251721
0.251941
0.252266
0.252699
0.253242
0.2539
0.254681
0.255592
0.256646
0.257856
0.259251
0.26084
0.262683
0.26478
0.267268
0.270077
0.273608
0.277428
0.28298
0.288068
0.297894
0.305739
0.314467
0.000915047
3.29954e-05
0.00474901
0.0482672
0.108282
0.159667
0.192045
0.210484
0.22158
0.228942
0.234215
0.238166
0.241217
0.243634
0.245592
0.247217
0.2486
0.249805
0.250878
0.251842
0.252705
0.253461
0.254089
0.25457
0.254883
0.255012
0.254955
0.254721
0.254328
0.253807
0.253193
0.252523
0.251833
0.251157
0.250521
0.249949
0.249456
0.249055
0.248754
0.248555
0.248463
0.248477
0.248598
0.248826
0.249163
0.24961
0.250171
0.25085
0.251656
0.252598
0.253691
0.254946
0.256393
0.258046
0.25996
0.262144
0.264726
0.267658
0.271306
0.275324
0.28098
0.286496
0.29621
0.305038
0.314853
0.000889563
0.000412928
0.00085886
0.0297749
0.0838961
0.136049
0.173901
0.196836
0.210745
0.219845
0.226275
0.231058
0.234736
0.237641
0.23999
0.241936
0.243589
0.245029
0.246308
0.247455
0.248482
0.249385
0.250145
0.250744
0.251161
0.251382
0.251402
0.251233
0.250893
0.250414
0.249832
0.249185
0.248511
0.247844
0.247214
0.246644
0.246151
0.24575
0.245447
0.245249
0.245157
0.245174
0.2453
0.245535
0.245882
0.246341
0.246918
0.247618
0.248448
0.249421
0.250549
0.251847
0.253343
0.255054
0.257033
0.259295
0.26196
0.265002
0.268753
0.272942
0.278686
0.284549
0.294173
0.303681
0.314559
0.00085773
0.000625007
9.36296e-05
0.0155418
0.0612625
0.111796
0.153561
0.181225
0.198474
0.2097
0.217529
0.2233
0.227713
0.231187
0.233988
0.2363
0.238258
0.239954
0.241454
0.242797
0.243999
0.245058
0.245959
0.246684
0.247213
0.24753
0.247635
0.247535
0.247254
0.246821
0.246274
0.245653
0.244998
0.244343
0.24372
0.243154
0.242663
0.242261
0.241958
0.24176
0.241669
0.241689
0.241819
0.242061
0.242417
0.242889
0.243482
0.244201
0.245058
0.246061
0.247223
0.248562
0.250103
0.251867
0.253905
0.256239
0.258981
0.262121
0.265965
0.270301
0.276121
0.282266
0.291817
0.301767
0.31362
0.000838599
0.000696106
1.62562e-05
0.00573785
0.040807
0.0882971
0.131378
0.163491
0.184497
0.198285
0.207814
0.214766
0.220047
0.224185
0.227513
0.230249
0.232557
0.234544
0.236292
0.237849
0.239238
0.240465
0.241517
0.242376
0.243024
0.243445
0.24364
0.243617
0.243398
0.243016
0.242509
0.241918
0.241284
0.240644
0.240031
0.23947
0.238981
0.238581
0.238278
0.23808
0.237991
0.238013
0.238148
0.238397
0.238762
0.239247
0.239858
0.240599
0.241481
0.242513
0.243708
0.245084
0.246669
0.248483
0.250578
0.252978
0.255792
0.259022
0.26295
0.267416
0.273303
0.279675
0.289168
0.299379
0.312084
0.000833874
0.000677582
0.000329767
0.000525104
0.0235519
0.0660189
0.108437
0.143707
0.168581
0.185353
0.196934
0.205307
0.211619
0.216537
0.220477
0.223707
0.22642
0.228745
0.230778
0.232577
0.234177
0.235587
0.236801
0.237803
0.238579
0.239112
0.239404
0.239463
0.239314
0.238987
0.238525
0.237968
0.237358
0.236736
0.236134
0.23558
0.235096
0.234697
0.234396
0.234199
0.234112
0.234137
0.234277
0.234534
0.234911
0.235411
0.236039
0.236802
0.237708
0.238768
0.239994
0.241408
0.243034
0.244897
0.247046
0.24951
0.252393
0.255708
0.259715
0.264297
0.270244
0.2768
0.286247
0.296585
0.310002
0.000836261
0.000642797
0.000513
8.21711e-05
0.0108056
0.0452881
0.0860247
0.122266
0.150633
0.170667
0.184663
0.194743
0.202287
0.208128
0.212785
0.216589
0.219772
0.222486
0.224848
0.226927
0.228767
0.230387
0.231782
0.232944
0.23386
0.234516
0.234912
0.235061
0.234986
0.234722
0.234308
0.233789
0.233209
0.232607
0.232019
0.231474
0.230995
0.2306
0.230301
0.230106
0.230022
0.230052
0.230198
0.230464
0.230852
0.231367
0.232012
0.232795
0.233725
0.234812
0.23607
0.23752
0.239189
0.2411
0.243303
0.24583
0.24878
0.252176
0.25626
0.260948
0.266951
0.273657
0.283064
0.293439
0.307422
0.00083938
0.000623223
0.00056604
6.55543e-05
0.00260253
0.0269979
0.0645099
0.100287
0.130853
0.154076
0.170767
0.182861
0.191879
0.19882
0.204323
0.208798
0.212525
0.215691
0.218432
0.220834
0.222951
0.22481
0.226413
0.227755
0.228828
0.22962
0.230133
0.230381
0.230389
0.230192
0.229833
0.229357
0.228809
0.228231
0.227661
0.227128
0.226657
0.226267
0.225972
0.225781
0.225701
0.225736
0.22589
0.226165
0.226564
0.227093
0.227755
0.228559
0.229512
0.230628
0.231918
0.233406
0.235117
0.237078
0.239337
0.241928
0.244945
0.248421
0.25258
0.257367
0.263425
0.270255
0.279629
0.289982
0.304388
0.000840642
0.000621614
0.000536309
0.000319554
0.000219485
0.0129065
0.0441417
0.0790124
0.10996
0.135627
0.155066
0.169439
0.180195
0.188446
0.194954
0.20022
0.204583
0.208272
0.211451
0.214224
0.21666
0.218793
0.220634
0.222182
0.223433
0.224378
0.225022
0.22538
0.225481
0.22536
0.225062
0.224634
0.224123
0.223574
0.223024
0.222506
0.222047
0.221665
0.221376
0.22119
0.221116
0.221157
0.22132
0.221605
0.222017
0.22256
0.223241
0.224066
0.225045
0.226191
0.227515
0.229044
0.230801
0.232814
0.235131
0.237787
0.240875
0.244432
0.248667
0.25355
0.259662
0.266598
0.275943
0.286242
0.300941
0.000840475
0.000626429
0.000504426
0.000444766
0.000112496
0.0037868
0.0259437
0.0583573
0.0890384
0.115702
0.137537
0.1543
0.167025
0.176814
0.184515
0.190717
0.195828
0.200128
0.203814
0.207017
0.209818
0.212267
0.21438
0.216163
0.217616
0.218734
0.219526
0.220009
0.220213
0.220177
0.219948
0.219575
0.219107
0.21859
0.218066
0.217567
0.217122
0.216751
0.216471
0.216294
0.216227
0.216277
0.21645
0.216747
0.217174
0.217735
0.218436
0.219285
0.220293
0.221473
0.222835
0.224407
0.226214
0.228284
0.230663
0.23339
0.236552
0.240193
0.244507
0.249486
0.255655
0.262686
0.272005
0.282236
0.297119
0.000840019
0.000629577
0.00049534
0.000444047
0.000261937
0.000513049
0.0118496
0.0385779
0.068632
0.0952984
0.118478
0.137405
0.152204
0.163727
0.172817
0.180123
0.186117
0.191135
0.195415
0.199117
0.202343
0.205154
0.207579
0.209631
0.211315
0.21263
0.21359
0.214214
0.214535
0.214594
0.214443
0.214132
0.213713
0.213235
0.21274
0.212264
0.211836
0.211479
0.211211
0.211045
0.210989
0.211051
0.211235
0.211548
0.211992
0.212574
0.2133
0.214178
0.215218
0.216436
0.217841
0.219463
0.221326
0.223459
0.225907
0.22871
0.231953
0.235683
0.240083
0.24516
0.251391
0.25851
0.267808
0.27797
0.292952
0.000839801
0.000630124
0.000497655
0.000419679
0.000378792
0.000174508
0.00301146
0.0211287
0.0486321
0.0754234
0.0987527
0.119006
0.135698
0.149035
0.159678
0.168256
0.175283
0.181146
0.186125
0.190412
0.194131
0.197363
0.20015
0.202511
0.20446
0.206001
0.207151
0.207936
0.208389
0.208558
0.208495
0.208255
0.207892
0.207457
0.206996
0.206547
0.20614
0.2058
0.205547
0.205394
0.205351
0.205427
0.205627
0.205958
0.206423
0.20703
0.207785
0.208697
0.209776
0.211039
0.212494
0.214173
0.216099
0.218303
0.220828
0.223717
0.227049
0.230877
0.23537
0.240551
0.246852
0.25406
0.263342
0.273443
0.288462
0.000839779
0.000629803
0.000499985
0.000412508
0.000379759
0.00025041
0.000136306
0.00832385
0.0297109
0.0557305
0.0793229
0.0998456
0.117747
0.132723
0.144966
0.154942
0.163147
0.169992
0.17579
0.180763
0.185063
0.188787
0.191994
0.194715
0.19697
0.198772
0.200142
0.20111
0.201716
0.20201
0.202048
0.201888
0.201589
0.201204
0.200782
0.200362
0.199979
0.199659
0.199422
0.199284
0.199257
0.199349
0.199568
0.19992
0.200411
0.201047
0.201837
0.202789
0.203915
0.20523
0.206744
0.208489
0.210488
0.212774
0.215387
0.218372
0.221804
0.22574
0.230337
0.235632
0.242013
0.249316
0.258591
0.268645
0.283659
0.0008398
0.000629626
0.0005002
0.000415074
0.000357483
0.000349796
3.4981e-05
0.00111193
0.0137761
0.0363169
0.0600086
0.0808388
0.0990381
0.115048
0.128694
0.140078
0.149555
0.157504
0.164242
0.170013
0.174991
0.179293
0.182993
0.186135
0.188748
0.190853
0.192479
0.19366
0.194443
0.19488
0.195034
0.194967
0.194741
0.194413
0.194034
0.193648
0.193291
0.192992
0.192773
0.192651
0.19264
0.192751
0.192991
0.193367
0.193887
0.194558
0.195389
0.196388
0.197568
0.198946
0.200528
0.202351
0.204437
0.206817
0.209532
0.212627
0.216175
0.220234
0.22495
0.230372
0.236846
0.244253
0.253534
0.263561
0.278546
0.000839807
0.000629628
0.00049989
0.000416668
0.000354246
0.0003347
0.000246242
0.000238965
0.00371156
0.0188933
0.0406531
0.0619177
0.0804453
0.0967014
0.111159
0.123733
0.13445
0.143558
0.151328
0.158
0.163757
0.16873
0.173006
0.176641
0.179674
0.182135
0.18406
0.185491
0.186479
0.187084
0.187373
0.187413
0.18727
0.187006
0.186676
0.186327
0.185998
0.18572
0.185519
0.185414
0.185421
0.18555
0.185812
0.186216
0.18677
0.187481
0.188358
0.189414
0.190658
0.19211
0.193774
0.195689
0.197877
0.200368
0.203203
0.206427
0.210108
0.21431
0.219163
0.224729
0.231316
0.238843
0.248147
0.258169
0.273118
0.000839805
0.000629646
0.000499816
0.000416456
0.000357408
0.000316962
0.000299667
0.000169694
0.000472414
0.00648368
0.0224941
0.0427729
0.061892
0.0785154
0.093106
0.1063
0.117985
0.128152
0.136961
0.144594
0.151211
0.156943
0.16188
0.166086
0.16961
0.172486
0.174762
0.176486
0.177716
0.178517
0.178963
0.179127
0.17908
0.178889
0.178614
0.178305
0.178005
0.177749
0.177565
0.177476
0.177498
0.177647
0.177932
0.178366
0.178956
0.179713
0.180646
0.181766
0.183087
0.184627
0.186388
0.188413
0.190722
0.193347
0.196324
0.199701
0.20354
0.207909
0.212923
0.218658
0.225381
0.233049
0.242398
0.252439
0.267362
0.000839804
0.000629642
0.00049986
0.000416124
0.000358577
0.000315557
0.000287095
0.000272643
0.000128405
0.000450714
0.00817907
0.024278
0.04298
0.0602853
0.0753212
0.088578
0.100644
0.111526
0.121218
0.129768
0.137265
0.143808
0.149473
0.154322
0.158406
0.161763
0.164447
0.166512
0.168024
0.169054
0.169683
0.169991
0.170054
0.169947
0.169732
0.169466
0.169196
0.168961
0.168792
0.168716
0.168753
0.168919
0.169228
0.169692
0.170323
0.171131
0.172127
0.173325
0.174735
0.176379
0.178257
0.180415
0.18287
0.185654
0.188802
0.192363
0.196391
0.200959
0.206167
0.212101
0.218989
0.226827
0.23625
0.246339
0.261258
0.000839803
0.000629632
0.000499883
0.000416052
0.000358537
0.000316576
0.000283796
0.000265354
0.00023733
5.6574e-05
0.00095151
0.00915322
0.0244281
0.0415613
0.0573718
0.0710645
0.0832268
0.0942885
0.104468
0.113709
0.121974
0.129295
0.135703
0.141238
0.145932
0.149826
0.152971
0.155427
0.157261
0.158556
0.159395
0.159868
0.160059
0.160045
0.159897
0.159677
0.159436
0.15922
0.159063
0.158996
0.159043
0.159224
0.159555
0.160051
0.160725
0.16159
0.162658
0.163943
0.165459
0.167227
0.169243
0.171559
0.17419
0.177168
0.180523
0.184306
0.188564
0.193371
0.198814
0.204988
0.212081
0.220124
0.229658
0.239828
0.254778
0.000839803
0.000629627
0.000499882
0.000416057
0.000358457
0.000316672
0.000284713
0.000259018
0.000247101
0.000207194
0.000107965
0.00131636
0.00912097
0.0231139
0.0387846
0.0532389
0.0659055
0.0771951
0.087436
0.0969212
0.105652
0.113575
0.120635
0.126821
0.132129
0.136584
0.140225
0.143105
0.145297
0.146886
0.147963
0.148622
0.148954
0.149043
0.148967
0.148793
0.148579
0.148377
0.148226
0.148162
0.148213
0.148403
0.148752
0.149277
0.149996
0.150921
0.152069
0.153453
0.155089
0.157
0.159179
0.161683
0.164524
0.167734
0.17134
0.175392
0.179931
0.185031
0.190763
0.197229
0.204579
0.212875
0.222567
0.232858
0.247884
0.000839802
0.000629623
0.000499876
0.000416057
0.00035845
0.000316605
0.000284913
0.000259609
0.000239723
0.000229814
0.000184572
0.000172344
0.00131857
0.00810222
0.0205563
0.0347722
0.0481044
0.0600115
0.0705718
0.0801534
0.0889558
0.0971265
0.104592
0.111265
0.117096
0.122069
0.126187
0.129493
0.132053
0.133952
0.135282
0.13614
0.136621
0.136817
0.136812
0.136681
0.136489
0.136293
0.136139
0.136068
0.136114
0.136304
0.136663
0.137213
0.137971
0.138956
0.140184
0.141674
0.14344
0.14551
0.147873
0.150593
0.153679
0.157163
0.16107
0.165447
0.170327
0.175787
0.181875
0.188705
0.19638
0.204993
0.214907
0.22537
0.240533
0.000839801
0.00062962
0.00049987
0.000416052
0.000358447
0.000316597
0.000284841
0.000259966
0.000239424
0.000223906
0.000212889
0.00019204
1.48305e-05
0.000880554
0.00633693
0.0169552
0.0297204
0.0421409
0.0533797
0.0633958
0.0724331
0.0806709
0.088199
0.0950613
0.101209
0.106539
0.11103
0.114702
0.117597
0.119786
0.121356
0.122402
0.123024
0.12332
0.123378
0.123282
0.123102
0.122901
0.122733
0.122644
0.122671
0.122849
0.123206
0.123767
0.124553
0.125586
0.126886
0.128474
0.130367
0.132597
0.135151
0.138101
0.141456
0.145248
0.149498
0.154256
0.159544
0.165439
0.171969
0.17925
0.187342
0.196358
0.206579
0.217286
0.232662
0.0008398
0.000629616
0.000499865
0.000416045
0.000358441
0.000316595
0.000284823
0.000259924
0.000239807
0.000223012
0.000210618
0.000198228
0.000170512
4.04743e-05
0.000440911
0.00414264
0.0126002
0.0238613
0.0354063
0.0460484
0.0556536
0.064226
0.0719427
0.0788916
0.0850978
0.0905246
0.095214
0.0991254
0.102252
0.10465
0.106397
0.107589
0.108323
0.108697
0.108804
0.108729
0.10855
0.108335
0.108143
0.108024
0.108023
0.108175
0.108513
0.109064
0.109856
0.110911
0.112252
0.113906
0.115893
0.118251
0.120967
0.124124
0.127732
0.131829
0.136436
0.141606
0.147353
0.153755
0.160813
0.16865
0.17727
0.186806
0.197449
0.208499
0.224191
0.000839799
0.000629612
0.000499859
0.000416039
0.000358435
0.000316589
0.000284823
0.000259894
0.000239827
0.000223246
0.000209515
0.000197485
0.000191668
0.000170827
6.17187e-05
0.000110504
0.00211795
0.00811677
0.017483
0.0279763
0.0380659
0.047209
0.0554061
0.0626636
0.0690412
0.0746116
0.079379
0.0833565
0.0865681
0.0890616
0.0909003
0.0921802
0.0929868
0.0934125
0.0935494
0.0934858
0.0933022
0.0930704
0.0928527
0.0927029
0.0926667
0.0927832
0.0930864
0.0936062
0.0943701
0.0954046
0.0967356
0.0983913
0.100398
0.102798
0.105582
0.108851
0.112623
0.116945
0.121848
0.127392
0.133588
0.140521
0.148167
0.156651
0.165919
0.176112
0.187326
0.198852
0.215015
0.000839798
0.000629608
0.000499854
0.000416033
0.000358429
0.000316582
0.000284819
0.000259887
0.000239805
0.000223293
0.000209474
0.000197748
0.000187882
0.000181558
0.000168811
9.85987e-05
1.22104e-05
0.000761519
0.00421508
0.0110813
0.0200569
0.0293674
0.0380441
0.0457906
0.0525847
0.0584837
0.0634513
0.0675616
0.0708925
0.0734958
0.0754331
0.0767808
0.0776373
0.0780989
0.0782584
0.0782063
0.0780246
0.0777859
0.0775534
0.0773815
0.0773166
0.0773981
0.07766
0.0781326
0.0788433
0.0798185
0.0810842
0.0826694
0.0846011
0.0869243
0.0896422
0.0928743
0.0966478
0.101022
0.106041
0.111794
0.118306
0.125677
0.133875
0.143028
0.153026
0.164004
0.175956
0.18813
0.204976
0.000839796
0.000629604
0.000499848
0.000416027
0.000358422
0.000316576
0.000284813
0.000259882
0.000239798
0.000223287
0.000209478
0.000197793
0.000187652
0.000179071
0.000173268
0.000166809
0.000130118
3.79583e-05
0.000151062
0.00155225
0.00555054
0.0121509
0.0200909
0.0280345
0.0352549
0.041548
0.0468804
0.051292
0.0548522
0.0576318
0.0597148
0.0611729
0.0621109
0.0626316
0.0628331
0.0628073
0.0626378
0.0623992
0.0621566
0.0619666
0.0618775
0.0619306
0.0621616
0.0626019
0.0632797
0.0642216
0.0654537
0.0670042
0.0688989
0.0711837
0.0738409
0.0769718
0.080612
0.0848363
0.0897219
0.0954126
0.101963
0.109511
0.118047
0.127729
0.138409
0.15022
0.163046
0.176046
0.193838
0.000839795
0.0006296
0.000499842
0.00041602
0.000358416
0.000316569
0.000284807
0.000259876
0.000239792
0.00022328
0.000209474
0.000197774
0.000187741
0.000179005
0.000171444
0.000165782
0.000161523
0.000146131
8.99697e-05
2.59486e-05
0.000323505
0.00187911
0.00547389
0.0109459
0.0173439
0.0236708
0.0293244
0.0340796
0.0379265
0.040933
0.0431928
0.0447986
0.0458513
0.0464552
0.0467131
0.0467193
0.0465605
0.0463152
0.0460532
0.0458352
0.0457141
0.0457353
0.0459384
0.0463581
0.0470249
0.0479673
0.0492118
0.0507859
0.0527141
0.0550401
0.0577378
0.0608952
0.064536
0.0687333
0.0735398
0.0790534
0.0853633
0.0927287
0.10122
0.111067
0.122156
0.134645
0.148345
0.162279
0.1813
0.000839794
0.000629596
0.000499836
0.000416014
0.000358409
0.000316562
0.0002848
0.00025987
0.000239786
0.000223273
0.000209468
0.000197767
0.000187735
0.000179046
0.000171426
0.00016472
0.000159239
0.000155363
0.000149341
0.000125499
6.71237e-05
3.60137e-05
0.000323283
0.00146279
0.00387435
0.00747641
0.0117426
0.0160355
0.0198864
0.0230633
0.0255139
0.0272839
0.0284619
0.0291512
0.0294571
0.0294796
0.029311
0.029035
0.0287266
0.0284524
0.028271
0.0282342
0.0283874
0.0287705
0.0294187
0.0303639
0.0316349
0.0332603
0.0352642
0.0376884
0.0405072
0.0438217
0.047638
0.0520043
0.0569542
0.0625423
0.0688498
0.0760404
0.0842169
0.0937857
0.104796
0.117523
0.131824
0.146591
0.167025
0.000839793
0.000629591
0.00049983
0.000416007
0.000358402
0.000316556
0.000284794
0.000259863
0.00023978
0.000223267
0.000209463
0.000197762
0.000187728
0.000179039
0.00017145
0.000164756
0.000158805
0.000153654
0.000149663
0.000146312
0.000138345
0.000113487
6.50615e-05
3.26573e-05
0.000146708
0.000609427
0.0015784
0.00304486
0.00482696
0.0066645
0.00832569
0.00966332
0.0106192
0.0112024
0.0114642
0.0114761
0.0113167
0.0110623
0.0107821
0.010536
0.0103742
0.0103388
0.0104667
0.0107919
0.011348
0.012171
0.0133007
0.0147836
0.0166655
0.0190119
0.0218137
0.0251925
0.0291596
0.033749
0.0389818
0.0449015
0.0515313
0.0589397
0.0671874
0.0765619
0.0871645
0.0995646
0.113895
0.129041
0.150765
0.000839792
0.000629587
0.000499824
0.000416
0.000358395
0.000316549
0.000284787
0.000259856
0.000239774
0.000223261
0.000209457
0.000197756
0.000187722
0.000179033
0.000171444
0.000164765
0.000158843
0.000153549
0.000148835
0.000144844
0.000141722
0.000138494
0.000131182
0.000113094
8.04851e-05
4.30855e-05
2.92415e-05
7.59142e-05
0.000207714
0.000419833
0.00067819
0.000935386
0.00114978
0.00129718
0.00137281
0.00138661
0.00135615
0.0013008
0.00123751
0.0011801
0.00113949
0.00112567
0.00114687
0.0012148
0.00135708
0.0016061
0.00200404
0.00259991
0.0034491
0.00465224
0.00629539
0.00854847
0.0115264
0.0153556
0.0201166
0.0258788
0.0326257
0.040375
0.0490513
0.0587399
0.0694438
0.081536
0.0953925
0.110209
0.132601
0.00083979
0.000629582
0.000499817
0.000415993
0.000358387
0.000316541
0.00028478
0.00025985
0.000239767
0.000223255
0.00020945
0.00019775
0.000187717
0.000179028
0.000171438
0.000164759
0.000158843
0.00015357
0.000148838
0.000144575
0.000140785
0.000137568
0.000134921
0.000132223
0.000127792
0.000119347
0.000105517
8.7318e-05
6.82581e-05
5.26828e-05
4.35074e-05
4.10397e-05
4.34006e-05
4.77959e-05
5.16657e-05
5.32389e-05
5.15269e-05
4.60847e-05
3.73347e-05
8.22446e-06
0.00014583
0.000106266
8.68062e-06
3.98044e-05
6.62088e-06
7.53956e-05
0.000108799
9.64958e-05
0.000174415
0.000322425
0.000509487
0.000901374
0.00174093
0.00325963
0.00570263
0.00937229
0.0144777
0.0212034
0.029503
0.0393493
0.0504711
0.0628416
0.0767214
0.0910239
0.1132
0.000839789
0.000629578
0.000499811
0.000415985
0.00035838
0.000316534
0.000284773
0.000259843
0.000239761
0.000223249
0.000209444
0.000197744
0.000187711
0.000179022
0.000171432
0.000164753
0.000158837
0.000153565
0.000148844
0.000144592
0.000140742
0.000137254
0.000134131
0.000131409
0.000129078
0.000126966
0.000124725
0.000121984
0.000118592
0.000114743
0.000110879
0.000107457
0.000104751
0.000102777
0.000101362
0.000100241
9.91541e-05