/*--------------------------------*- C++ -*----------------------------------*\
| =========                 |                                                 |
| \\      /  F ield         | OpenFOAM: The Open Source CFD Toolbox           |
|  \\    /   O peration     | Version:  v1906                                 |
|   \\  /    A nd           | Web:      www.OpenFOAM.com                      |
|    \\/     M anipulation  |                                                 |
\*---------------------------------------------------------------------------*/
FoamFile
{
    version     2.0;
    format      ascii;
    class       volScalarField;
    location    "0.1";
    object      nut;
}
// * * * * * * * * * * * * * * * * * * * * * * * * * * * * * * * * * * * * * //

dimensions      [0 2 -1 0 0 0 0];


internalField   nonuniform List<scalar> 
80000
(
1.28115e-06
1.30076e-06
1.27573e-06
1.25481e-06
1.23867e-06
1.22732e-06
1.21838e-06
1.21111e-06
1.20497e-06
1.19978e-06
1.19529e-06
1.19141e-06
1.18799e-06
1.18498e-06
1.1823e-06
1.17991e-06
1.17775e-06
1.17578e-06
1.17395e-06
1.17222e-06
1.17053e-06
1.16887e-06
1.16719e-06
1.16548e-06
1.16375e-06
1.16201e-06
1.16026e-06
1.15854e-06
1.15686e-06
1.15524e-06
1.1537e-06
1.15222e-06
1.15081e-06
1.14944e-06
1.14808e-06
1.1467e-06
1.14523e-06
1.14363e-06
1.14184e-06
1.13979e-06
1.13741e-06
1.13462e-06
1.13134e-06
1.12747e-06
1.12292e-06
1.11757e-06
1.11129e-06
1.10394e-06
1.09534e-06
1.0853e-06
1.07358e-06
1.0599e-06
1.04383e-06
1.02508e-06
1.00282e-06
9.76708e-07
9.45077e-07
9.07632e-07
8.59397e-07
7.50359e-07
5.40775e-07
3.88383e-07
1.59046e-07
1.09575e-07
2.54758e-07
7.44951e-06
8.60916e-06
8.98204e-06
8.73574e-06
8.54409e-06
8.42913e-06
8.34388e-06
8.27403e-06
8.21511e-06
8.16485e-06
8.12141e-06
8.08359e-06
8.05033e-06
8.02092e-06
7.9948e-06
7.97148e-06
7.95054e-06
7.93153e-06
7.91402e-06
7.89754e-06
7.88164e-06
7.86593e-06
7.85008e-06
7.83386e-06
7.81721e-06
7.80012e-06
7.78281e-06
7.76546e-06
7.74832e-06
7.73165e-06
7.71564e-06
7.70041e-06
7.68598e-06
7.67228e-06
7.65912e-06
7.64626e-06
7.63334e-06
7.61998e-06
7.6057e-06
7.59003e-06
7.57243e-06
7.55235e-06
7.5292e-06
7.50237e-06
7.47123e-06
7.43506e-06
7.39317e-06
7.34471e-06
7.2889e-06
7.22462e-06
7.15111e-06
7.06656e-06
6.97032e-06
6.85932e-06
6.734e-06
6.58668e-06
6.42352e-06
6.21965e-06
5.98021e-06
5.52882e-06
5.22025e-06
4.32054e-06
4.31883e-06
2.1881e-06
2.19923e-06
7.75151e-06
1.4378e-05
1.62106e-05
1.61703e-05
1.59541e-05
1.58138e-05
1.57117e-05
1.56256e-05
1.5551e-05
1.54852e-05
1.54272e-05
1.53757e-05
1.53297e-05
1.52885e-05
1.52516e-05
1.52184e-05
1.51886e-05
1.51615e-05
1.51367e-05
1.51134e-05
1.5091e-05
1.50687e-05
1.50459e-05
1.50222e-05
1.49973e-05
1.49711e-05
1.49438e-05
1.49158e-05
1.48875e-05
1.48595e-05
1.48322e-05
1.48059e-05
1.4781e-05
1.47574e-05
1.47351e-05
1.47138e-05
1.46932e-05
1.46727e-05
1.46517e-05
1.46297e-05
1.46058e-05
1.45794e-05
1.45497e-05
1.45157e-05
1.44767e-05
1.44318e-05
1.438e-05
1.43201e-05
1.42513e-05
1.41718e-05
1.40812e-05
1.3976e-05
1.38573e-05
1.37174e-05
1.35629e-05
1.33716e-05
1.31726e-05
1.28914e-05
1.26386e-05
1.21302e-05
1.1895e-05
1.07091e-05
1.08353e-05
7.86094e-06
8.84401e-06
7.52975e-06
1.82864e-05
2.24795e-05
2.32206e-05
2.31938e-05
2.31302e-05
2.30812e-05
2.30322e-05
2.29833e-05
2.29346e-05
2.28882e-05
2.28442e-05
2.28032e-05
2.27651e-05
2.27301e-05
2.26981e-05
2.26689e-05
2.26424e-05
2.26179e-05
2.25948e-05
2.25721e-05
2.2549e-05
2.25246e-05
2.24979e-05
2.24687e-05
2.24367e-05
2.24023e-05
2.23658e-05
2.2328e-05
2.22898e-05
2.2252e-05
2.22153e-05
2.21802e-05
2.2147e-05
2.21158e-05
2.20865e-05
2.20586e-05
2.20316e-05
2.20048e-05
2.19775e-05
2.19488e-05
2.19178e-05
2.18836e-05
2.1845e-05
2.18011e-05
2.17506e-05
2.16925e-05
2.16254e-05
2.15481e-05
2.14585e-05
2.13561e-05
2.12364e-05
2.11012e-05
2.09398e-05
2.07621e-05
2.05374e-05
2.03062e-05
1.99672e-05
1.96737e-05
1.90462e-05
1.87566e-05
1.72531e-05
1.71796e-05
1.36922e-05
1.1803e-05
6.70277e-06
2.0195e-05
2.78282e-05
2.9916e-05
3.03846e-05
3.05364e-05
3.06201e-05
3.06647e-05
3.06842e-05
3.06859e-05
3.06775e-05
3.06626e-05
3.06443e-05
3.0624e-05
3.06033e-05
3.05831e-05
3.0564e-05
3.05461e-05
3.05292e-05
3.05127e-05
3.04956e-05
3.04767e-05
3.04548e-05
3.04289e-05
3.03984e-05
3.03629e-05
3.03228e-05
3.02788e-05
3.02321e-05
3.01837e-05
3.0135e-05
3.00871e-05
3.00409e-05
2.99969e-05
2.99555e-05
2.99166e-05
2.98797e-05
2.98443e-05
2.98096e-05
2.97747e-05
2.97384e-05
2.96996e-05
2.96571e-05
2.96096e-05
2.95556e-05
2.94937e-05
2.94225e-05
2.93399e-05
2.92446e-05
2.91335e-05
2.90062e-05
2.88565e-05
2.86865e-05
2.84822e-05
2.82558e-05
2.7968e-05
2.7668e-05
2.72291e-05
2.68382e-05
2.60348e-05
2.56015e-05
2.37177e-05
2.28969e-05
1.91187e-05
1.42681e-05
5.24743e-06
2.08735e-05
3.17155e-05
3.59105e-05
3.72304e-05
3.77826e-05
3.81034e-05
3.83125e-05
3.84532e-05
3.85465e-05
3.86088e-05
3.86496e-05
3.86758e-05
3.86916e-05
3.8701e-05
3.87059e-05
3.87084e-05
3.87093e-05
3.8709e-05
3.87071e-05
3.87025e-05
3.8694e-05
3.86802e-05
3.86596e-05
3.86315e-05
3.85954e-05
3.85519e-05
3.85021e-05
3.84473e-05
3.83893e-05
3.83298e-05
3.82704e-05
3.82125e-05
3.8157e-05
3.81044e-05
3.80546e-05
3.80074e-05
3.79621e-05
3.79176e-05
3.78729e-05
3.78267e-05
3.77773e-05
3.77234e-05
3.76631e-05
3.75948e-05
3.75164e-05
3.74261e-05
3.73213e-05
3.72001e-05
3.70587e-05
3.68961e-05
3.67046e-05
3.64861e-05
3.62236e-05
3.59305e-05
3.55594e-05
3.51662e-05
3.4602e-05
3.40784e-05
3.30718e-05
3.2428e-05
3.01687e-05
2.8232e-05
2.44694e-05
1.70188e-05
3.20268e-06
2.06181e-05
3.37581e-05
4.09923e-05
4.35204e-05
4.46943e-05
4.53812e-05
4.58403e-05
4.61651e-05
4.63985e-05
4.65704e-05
4.66983e-05
4.67949e-05
4.68687e-05
4.69265e-05
4.69725e-05
4.70104e-05
4.70423e-05
4.70692e-05
4.70913e-05
4.71076e-05
4.71169e-05
4.71173e-05
4.71074e-05
4.70861e-05
4.70531e-05
4.70092e-05
4.69555e-05
4.68942e-05
4.68274e-05
4.67575e-05
4.66868e-05
4.6617e-05
4.65494e-05
4.64847e-05
4.64233e-05
4.63646e-05
4.63079e-05
4.62522e-05
4.6196e-05
4.61377e-05
4.60754e-05
4.60073e-05
4.59313e-05
4.5845e-05
4.5746e-05
4.56319e-05
4.54995e-05
4.53464e-05
4.51676e-05
4.49617e-05
4.47194e-05
4.44424e-05
4.41103e-05
4.37373e-05
4.32689e-05
4.27651e-05
4.20595e-05
4.13779e-05
4.01552e-05
3.9071e-05
3.6637e-05
3.3456e-05
2.98983e-05
2.01462e-05
4.31278e-07
1.97257e-05
3.45561e-05
4.50289e-05
4.90852e-05
5.11249e-05
5.23297e-05
5.31392e-05
5.37211e-05
5.4151e-05
5.44771e-05
5.47286e-05
5.49258e-05
5.50829e-05
5.52106e-05
5.53162e-05
5.54056e-05
5.54825e-05
5.55491e-05
5.56062e-05
5.56531e-05
5.56885e-05
5.57106e-05
5.57176e-05
5.57085e-05
5.56828e-05
5.56417e-05
5.55869e-05
5.55208e-05
5.54465e-05
5.5367e-05
5.52852e-05
5.52035e-05
5.51235e-05
5.50464e-05
5.49724e-05
5.49014e-05
5.48324e-05
5.47641e-05
5.4695e-05
5.4623e-05
5.4546e-05
5.44616e-05
5.43673e-05
5.42603e-05
5.41376e-05
5.39962e-05
5.38322e-05
5.36425e-05
5.34212e-05
5.31663e-05
5.28668e-05
5.25239e-05
5.21143e-05
5.1652e-05
5.10766e-05
5.04498e-05
4.9592e-05
4.87315e-05
4.72857e-05
4.54066e-05
4.31365e-05
3.86973e-05
3.54434e-05
2.36498e-05
1.30653e-07
1.89151e-05
3.44665e-05
4.7168e-05
5.37864e-05
5.69408e-05
5.88343e-05
6.01095e-05
6.10319e-05
6.17224e-05
6.22538e-05
6.26705e-05
6.30028e-05
6.32721e-05
6.34944e-05
6.36807e-05
6.38401e-05
6.39783e-05
6.40989e-05
6.42036e-05
6.42922e-05
6.43636e-05
6.44158e-05
6.44469e-05
6.44561e-05
6.44427e-05
6.44084e-05
6.43554e-05
6.42869e-05
6.42067e-05
6.41186e-05
6.40263e-05
6.39328e-05
6.38403e-05
6.37504e-05
6.36634e-05
6.35793e-05
6.34971e-05
6.34153e-05
6.33322e-05
6.32453e-05
6.31522e-05
6.305e-05
6.29357e-05
6.28061e-05
6.26575e-05
6.24863e-05
6.22879e-05
6.20586e-05
6.17916e-05
6.14837e-05
6.11229e-05
6.07093e-05
6.0217e-05
5.96593e-05
5.89705e-05
5.82119e-05
5.71951e-05
5.61326e-05
5.44596e-05
5.16863e-05
4.96041e-05
4.3969e-05
4.08498e-05
2.75121e-05
8.68739e-08
1.84401e-05
3.36206e-05
4.77728e-05
5.75131e-05
6.20175e-05
6.47838e-05
6.66537e-05
6.80105e-05
6.90338e-05
6.98279e-05
7.04566e-05
7.09629e-05
7.13773e-05
7.17221e-05
7.20134e-05
7.22638e-05
7.24815e-05
7.26724e-05
7.28391e-05
7.29821e-05
7.31006e-05
7.31926e-05
7.32562e-05
7.32906e-05
7.32953e-05
7.32724e-05
7.32249e-05
7.31567e-05
7.30725e-05
7.29771e-05
7.28751e-05
7.27701e-05
7.26652e-05
7.25622e-05
7.24618e-05
7.23641e-05
7.2268e-05
7.21721e-05
7.20741e-05
7.19715e-05
7.18613e-05
7.17404e-05
7.16051e-05
7.14517e-05
7.12759e-05
7.10737e-05
7.08395e-05
7.0569e-05
7.02543e-05
6.98916e-05
6.94673e-05
6.89805e-05
6.84027e-05
6.77462e-05
6.69407e-05
6.60432e-05
6.48621e-05
6.32493e-05
6.15369e-05
5.79814e-05
5.55676e-05
4.92323e-05
4.60478e-05
3.17038e-05
1.25668e-07
1.68655e-05
3.20127e-05
4.72792e-05
5.9516e-05
6.62413e-05
7.00681e-05
7.26735e-05
7.45689e-05
7.6005e-05
7.71258e-05
7.80189e-05
7.87428e-05
7.93389e-05
7.98378e-05
8.02611e-05
8.06261e-05
8.09443e-05
8.12239e-05
8.14688e-05
8.16806e-05
8.18589e-05
8.20017e-05
8.21073e-05
8.21749e-05
8.22042e-05
8.21982e-05
8.21603e-05
8.20955e-05
8.20096e-05
8.19084e-05
8.17976e-05
8.16818e-05
8.15645e-05
8.14483e-05
8.13343e-05
8.12225e-05
8.11121e-05
8.10014e-05
8.08881e-05
8.07693e-05
8.06416e-05
8.05014e-05
8.03446e-05
8.01671e-05
7.99638e-05
7.97301e-05
7.94598e-05
7.91478e-05
7.87853e-05
7.83675e-05
7.78795e-05
7.73191e-05
7.66554e-05
7.58988e-05
7.49754e-05
7.39312e-05
7.25785e-05
7.02687e-05
6.82439e-05
6.42666e-05
6.14067e-05
5.44684e-05
5.12446e-05
3.62541e-05
4.25353e-08
1.38593e-05
2.98975e-05
4.59334e-05
5.99016e-05
6.95117e-05
7.45791e-05
7.80691e-05
8.06163e-05
8.25532e-05
8.40712e-05
8.52866e-05
8.62763e-05
8.70951e-05
8.7783e-05
8.83687e-05
8.88749e-05
8.93168e-05
8.97056e-05
9.00472e-05
9.0344e-05
9.05963e-05
9.08025e-05
9.09607e-05
9.10706e-05
9.11321e-05
9.1149e-05
9.11255e-05
9.10678e-05
9.09828e-05
9.08777e-05
9.07592e-05
9.06331e-05
9.05037e-05
9.03743e-05
9.02463e-05
9.01202e-05
8.99951e-05
8.98694e-05
8.97404e-05
8.96051e-05
8.94598e-05
8.93004e-05
8.91224e-05
8.8921e-05
8.86907e-05
8.84262e-05
8.81206e-05
8.77681e-05
8.73591e-05
8.68874e-05
8.63371e-05
8.57046e-05
8.49566e-05
8.41003e-05
8.30584e-05
8.16931e-05
8.00033e-05
7.72676e-05
7.48416e-05
7.05135e-05
6.72562e-05
5.96946e-05
5.64707e-05
4.1155e-05
2.78092e-08
1.04075e-05
2.77513e-05
4.38191e-05
5.90335e-05
7.09082e-05
7.82134e-05
8.27398e-05
8.60594e-05
8.85922e-05
9.05842e-05
9.21852e-05
9.3494e-05
9.45805e-05
9.54961e-05
9.62777e-05
9.69545e-05
9.75461e-05
9.80673e-05
9.85259e-05
9.89259e-05
9.92683e-05
9.95518e-05
9.97748e-05
9.99373e-05
0.00010004
0.000100086
0.000100083
0.000100036
9.99549e-05
9.98479e-05
9.97231e-05
9.95874e-05
9.94463e-05
9.93036e-05
9.91616e-05
9.90208e-05
9.88808e-05
9.87398e-05
9.85951e-05
9.84434e-05
9.82806e-05
9.81025e-05
9.79039e-05
9.76796e-05
9.74236e-05
9.71298e-05
9.67909e-05
9.64001e-05
9.59471e-05
9.54243e-05
9.48148e-05
9.41134e-05
9.32844e-05
9.2329e-05
9.1166e-05
8.92635e-05
8.72552e-05
8.42357e-05
8.14366e-05
7.67244e-05
7.31436e-05
6.4936e-05
6.17235e-05
4.63286e-05
7.27797e-08
6.60035e-06
2.55544e-05
4.09485e-05
5.71276e-05
7.07811e-05
8.04667e-05
8.65851e-05
9.08024e-05
9.40324e-05
9.65811e-05
9.86365e-05
0.000100322
0.000101725
0.000102911
0.000103926
0.000104806
0.000105576
0.000106255
0.000106853
0.000107376
0.000107827
0.000108203
0.000108505
0.000108732
0.000108884
0.000108968
0.000108991
0.00010896
0.000108886
0.00010878
0.00010865
0.000108505
0.000108353
0.000108197
0.000108041
0.000107885
0.00010773
0.000107573
0.000107413
0.000107245
0.000107066
0.00010687
0.000106652
0.000106406
0.000106126
0.000105806
0.000105436
0.000105011
0.000104517
0.000103948
0.000103284
0.000102518
0.000101612
0.000100515
9.89542e-05
9.67423e-05
9.4438e-05
9.11566e-05
8.80445e-05
8.29107e-05
7.90585e-05
7.02071e-05
6.70013e-05
5.16822e-05
3.05043e-07
2.56938e-06
2.20067e-05
3.75532e-05
5.43179e-05
6.93769e-05
8.10665e-05
8.92436e-05
9.47477e-05
9.87809e-05
0.000101974
0.000104557
0.000106682
0.000108456
0.000109958
0.000111246
0.000112364
0.000113344
0.000114209
0.000114972
0.000115642
0.00011622
0.000116707
0.000117102
0.000117406
0.00011762
0.00011775
0.000117805
0.000117796
0.000117733
0.000117629
0.000117497
0.000117344
0.000117181
0.000117011
0.000116841
0.00011667
0.000116499
0.000116327
0.000116151
0.000115968
0.000115772
0.00011556
0.000115324
0.000115059
0.000114759
0.000114415
0.000114018
0.000113562
0.000113034
0.000112423
0.000111711
0.000110886
0.000109905
0.000108394
0.000106566
0.000104136
0.000101577
9.80207e-05
9.46417e-05
8.90731e-05
8.49814e-05
7.55079e-05
7.2308e-05
5.71277e-05
7.76804e-07
9.61416e-07
1.75806e-05
3.4229e-05
5.07203e-05
6.68358e-05
8.02503e-05
9.02863e-05
9.75286e-05
0.000102743
0.000106672
0.000109862
0.000112491
0.000114693
0.000116562
0.000118166
0.000119562
0.000120786
0.000121868
0.000122824
0.000123663
0.000124392
0.000125009
0.000125514
0.000125909
0.000126196
0.000126383
0.000126478
0.000126496
0.000126448
0.000126351
0.000126216
0.000126057
0.000125883
0.0001257
0.000125515
0.000125329
0.000125142
0.000124955
0.000124764
0.000124565
0.000124355
0.000124127
0.000123876
0.000123595
0.000123276
0.000122913
0.000122495
0.000122014
0.000121456
0.000120811
0.000120056
0.000119177
0.0001179
0.000116093
0.000114052
0.000111428
0.000108655
0.000104815
0.000101195
9.51975e-05
9.08912e-05
8.08269e-05
7.76488e-05
6.26032e-05
9.76832e-07
4.15112e-07
1.31252e-05
3.12739e-05
4.65094e-05
6.32835e-05
7.81557e-05
8.99051e-05
9.87649e-05
0.000105468
0.000110582
0.000114458
0.000117663
0.000120354
0.000122642
0.000124611
0.000126325
0.000127831
0.000129163
0.000130341
0.000131378
0.000132281
0.000133049
0.000133683
0.000134186
0.000134559
0.000134813
0.000134958
0.000135008
0.000134981
0.000134893
0.000134759
0.000134594
0.000134409
0.000134213
0.000134012
0.00013381
0.000133608
0.000133405
0.000133199
0.000132987
0.000132762
0.000132521
0.000132257
0.000131963
0.00013163
0.000131252
0.000130818
0.000130318
0.000129739
0.000129066
0.000128276
0.000127152
0.000125608
0.000123622
0.000121408
0.000118596
0.000115635
0.000111515
0.000107671
0.000101259
9.67652e-05
8.61452e-05
8.30252e-05
6.8067e-05
1.03893e-06
1.71722e-07
8.53053e-06
2.74544e-05
4.21507e-05
5.89161e-05
7.48619e-05
8.81953e-05
9.86209e-05
0.000106717
0.000113103
0.000118222
0.000122108
0.000125351
0.000128115
0.000130498
0.000132576
0.000134403
0.000136021
0.000137454
0.000138718
0.000139821
0.000140764
0.000141548
0.000142176
0.00014265
0.000142982
0.000143186
0.000143277
0.000143275
0.000143199
0.000143068
0.000142898
0.000142703
0.000142494
0.000142278
0.00014206
0.000141841
0.000141623
0.000141402
0.000141176
0.000140939
0.000140687
0.000140412
0.000140108
0.000139767
0.000139379
0.000138935
0.000138423
0.00013783
0.000137137
0.000136209
0.000134781
0.000133072
0.000130954
0.000128598
0.000125607
0.000122473
0.000118087
0.000114034
0.000107226
0.000102578
9.14392e-05
8.84309e-05
7.34923e-05
1.05453e-06
6.52733e-08
3.82784e-06
2.17412e-05
3.83123e-05
5.39973e-05
7.04779e-05
8.51917e-05
9.71578e-05
0.000106636
0.000114224
0.00012044
0.0001255
0.000129593
0.000132893
0.000135741
0.00013823
0.000140421
0.000142364
0.000144087
0.00014561
0.000146941
0.000148084
0.00014904
0.000149812
0.000150404
0.000150828
0.000151101
0.000151241
0.00015127
0.000151211
0.000151085
0.000150911
0.000150706
0.000150483
0.000150251
0.000150016
0.000149781
0.000149547
0.000149311
0.000149072
0.000148825
0.000148564
0.000148282
0.000147973
0.000147627
0.000147235
0.000146788
0.000146272
0.000145673
0.000144894
0.000143677
0.0001421
0.000140275
0.000138046
0.000135573
0.000132416
0.000129125
0.000124488
0.000120248
0.000113065
0.000108299
9.66818e-05
9.38506e-05
7.88625e-05
1.02957e-06
7.16645e-07
1.03759e-06
1.60327e-05
3.49057e-05
4.88604e-05
6.52361e-05
8.09441e-05
9.4366e-05
0.00010526
0.000114069
0.000121331
0.000127404
0.000132492
0.000136789
0.000140252
0.000143201
0.000145801
0.000148109
0.000150159
0.000151974
0.000153566
0.000154936
0.000156088
0.000157025
0.000157752
0.000158284
0.000158637
0.000158834
0.0001589
0.000158862
0.000158743
0.000158567
0.000158353
0.000158116
0.000157867
0.000157614
0.000157362
0.000157111
0.000156862
0.000156611
0.000156355
0.000156087
0.000155801
0.00015549
0.000155145
0.000154757
0.000154313
0.000153801
0.000153168
0.000152092
0.000150738
0.000149075
0.00014717
0.000144846
0.000142275
0.000138971
0.000135541
0.000130673
0.000126272
0.000118738
0.000113898
0.000101844
9.926e-05
8.4165e-05
1.001e-06
9.82273e-07
1.89261e-07
1.0568e-05
2.914e-05
4.41635e-05
5.95137e-05
7.56053e-05
9.02378e-05
0.000102552
0.000112651
0.000120992
0.000128017
0.000133992
0.00013914
0.000143533
0.000147353
0.000150452
0.000153169
0.000155585
0.000157728
0.000159613
0.00016124
0.000162614
0.000163739
0.00016462
0.000165274
0.000165721
0.000165985
0.000166096
0.000166083
0.000165974
0.000165797
0.000165574
0.000165322
0.000165056
0.000164785
0.000164514
0.000164247
0.000163984
0.000163722
0.000163457
0.000163185
0.000162899
0.000162591
0.000162252
0.000161873
0.00016144
0.000160901
0.00015999
0.000158791
0.000157367
0.000155652
0.000153693
0.000151294
0.000148644
0.000145214
0.000141667
0.000136591
0.00013206
0.000124206
0.000119338
0.000106896
0.000104627
8.93847e-05
9.84637e-07
1.04768e-06
3.97451e-08
5.2161e-06
2.22369e-05
4.01661e-05
5.3778e-05
6.94976e-05
8.48625e-05
9.84688e-05
0.000109901
0.000119404
0.000127411
0.000134252
0.000140181
0.000145361
0.000149922
0.000153882
0.000157381
0.000160275
0.000162784
0.000164996
0.000166912
0.000168535
0.000169873
0.00017093
0.000171723
0.000172277
0.000172618
0.000172781
0.000172798
0.000172703
0.000172527
0.000172294
0.000172028
0.000171743
0.000171452
0.000171162
0.000170878
0.0001706
0.000170328
0.000170057
0.000169783
0.0001695
0.000169199
0.000168872
0.000168506
0.000168017
0.000167223
0.000166203
0.000164956
0.000163503
0.000161761
0.000159773
0.000157321
0.000154614
0.000151081
0.000147446
0.000142188
0.000137563
0.000129427
0.000124582
0.000111804
0.000109913
9.44945e-05
9.81308e-07
1.01603e-06
7.24525e-07
7.1641e-07
1.5418e-05
3.45066e-05
4.86809e-05
6.31044e-05
7.85118e-05
9.30527e-05
0.000105742
0.000116474
0.000125547
0.000133303
0.000140022
0.000145932
0.000151164
0.000155831
0.000159994
0.000163648
0.000166863
0.000169625
0.000171861
0.000173765
0.000175341
0.000176595
0.000177547
0.000178222
0.000178652
0.000178875
0.000178928
0.00017885
0.000178676
0.000178435
0.000178153
0.000177848
0.000177536
0.000177226
0.000176924
0.000176632
0.000176349
0.000176073
0.0001758
0.000175522
0.000175232
0.000174921
0.000174391
0.000173703
0.000172823
0.000171773
0.000170521
0.000169071
0.000167326
0.000165332
0.000162852
0.000160114
0.000156506
0.000152813
0.000147408
0.000142731
0.000134358
0.000129587
0.000116535
0.000115078
9.94643e-05
9.83884e-07
9.75039e-07
9.98059e-07
1.94742e-07
9.14276e-06
2.65442e-05
4.42969e-05
5.69896e-05
7.16707e-05
8.65209e-05
0.000100179
0.000112103
0.000122318
0.000131076
0.000138655
0.000145312
0.000151211
0.000156511
0.000161269
0.000165548
0.000169359
0.000172707
0.000175566
0.000177979
0.000179967
0.000181528
0.000182658
0.00018347
0.000184002
0.000184293
0.000184389
0.000184331
0.000184161
0.000183912
0.000183613
0.000183288
0.000182954
0.000182622
0.000182301
0.000181993
0.0001817
0.00018142
0.000181149
0.000180799
0.000180375
0.000179887
0.000179281
0.000178542
0.000177657
0.000176628
0.000175403
0.000173984
0.000172261
0.000170288
0.000167808
0.00016507
0.000161419
0.000157706
0.000152193
0.000147508
0.00013895
0.00013431
0.000121054
0.000120077
0.000104293
9.86706e-07
9.54249e-07
1.05024e-06
1.83529e-07
3.15036e-06
1.85599e-05
3.76139e-05
5.18343e-05
6.49633e-05
7.92998e-05
9.3391e-05
0.000106287
0.000117623
0.000127451
0.000135978
0.000143454
0.000150069
0.000156003
0.000161344
0.000166183
0.000170529
0.00017439
0.000177766
0.000180633
0.000183004
0.000184894
0.000186323
0.000187345
0.000188016
0.000188395
0.00018854
0.000188509
0.00018835
0.000188107
0.000187811
0.000187487
0.000187154
0.000186819
0.00018649
0.000186164
0.00018584
0.00018551
0.000185166
0.000184782
0.000184334
0.00018381
0.000183205
0.000182494
0.000181656
0.000180682
0.000179514
0.000178153
0.000176482
0.000174558
0.00017211
0.000169405
0.000165749
0.000162055
0.00015648
0.000151838
0.000143156
0.000138702
0.000125323
0.000124856
0.000108985
9.87707e-07
9.54279e-07
9.97933e-07
7.78347e-07
4.5749e-07
1.126e-05
2.8604e-05
4.7258e-05
5.89829e-05
7.19913e-05
8.58042e-05
9.92089e-05
0.000111463
0.000122328
0.000131859
0.000140235
0.000147642
0.000154268
0.000160229
0.000165631
0.000170501
0.00017485
0.000178689
0.000181981
0.000184722
0.000186927
0.00018863
0.000189864
0.000190688
0.000191171
0.000191382
0.000191386
0.000191243
0.000191001
0.000190699
0.000190367
0.000190022
0.000189677
0.000189338
0.000189005
0.000188672
0.000188334
0.000187978
0.000187602
0.000187184
0.000186697
0.000186143
0.0001855
0.00018474
0.000183849
0.000182765
0.00018149
0.0001799
0.000178057
0.000175676
0.000173042
0.000169422
0.000165793
0.000160208
0.000155662
0.000146926
0.000142714
0.000129306
0.000129362
0.00011352
9.87447e-07
9.60779e-07
9.51196e-07
9.89565e-07
3.46084e-07
4.70782e-06
1.95898e-05
3.81983e-05
5.37802e-05
6.52585e-05
7.80694e-05
9.1306e-05
0.000104035
0.000115727
0.000126207
0.000135515
0.000143784
0.000151179
0.000157832
0.000163848
0.000169276
0.000174132
0.000178432
0.000182148
0.000185267
0.000187795
0.000189769
0.000191223
0.000192215
0.000192817
0.000193106
0.000193154
0.000193028
0.000192785
0.000192469
0.000192114
0.000191746
0.000191379
0.000191021
0.000190675
0.000190339
0.000190007
0.000189667
0.000189318
0.000188946
0.000188527
0.000188048
0.000187494
0.000186833
0.000186047
0.000185072
0.000183909
0.000182431
0.000180703
0.000178425
0.000175903
0.000172365
0.000168849
0.000163312
0.000158921
0.000150207
0.000146294
0.00013296
0.000133537
0.000117867
9.86991e-07
9.6458e-07
9.39477e-07
9.76324e-07
7.4938e-07
1.08397e-06
1.13699e-05
2.80707e-05
4.67654e-05
5.96626e-05
7.09352e-05
8.32417e-05
9.57947e-05
0.000107876
0.000119074
0.000129227
0.000138362
0.000146584
0.000154
0.000160703
0.000166751
0.000172169
0.000176969
0.000181137
0.000184661
0.000187539
0.000189804
0.000191495
0.000192673
0.000193411
0.000193791
0.000193892
0.000193787
0.000193539
0.000193202
0.000192815
0.000192409
0.000192005
0.000191615
0.000191246
0.000190898
0.000190568
0.000190246
0.000189928
0.000189604
0.000189256
0.000188862
0.000188407
0.000187857
0.000187194
0.000186349
0.000185325
0.000183989
0.00018241
0.000180276
0.000177908
0.000174504
0.000171153
0.000165729
0.000161552
0.000152947
0.000149386
0.000136242
0.000137327
0.000121988
9.86785e-07
9.6516e-07
9.43467e-07
9.35165e-07
9.73558e-07
5.80967e-07
4.25577e-06
1.81335e-05
3.58869e-05
5.41669e-05
6.49525e-05
7.57749e-05
8.74241e-05
9.92654e-05
0.000110734
0.000121473
0.000131357
0.000140383
0.000148591
0.000156036
0.000162768
0.000168812
0.000174175
0.000178848
0.00018282
0.000186089
0.000188681
0.00019064
0.000192028
0.000192923
0.000193409
0.000193573
0.000193493
0.000193242
0.000192878
0.000192451
0.000191997
0.000191543
0.000191107
0.0001907
0.000190327
0.000189987
0.000189674
0.000189382
0.000189101
0.000188818
0.000188509
0.000188158
0.000187728
0.000187202
0.000186506
0.000185647
0.000184484
0.000183091
0.000181144
0.000178978
0.000175762
0.000172633
0.000167394
0.000163494
0.00015509
0.000151934
0.000139106
0.000140678
0.000125848
9.86764e-07
9.64768e-07
9.46719e-07
9.25426e-07
9.60175e-07
7.86162e-07
3.47773e-07
9.41506e-06
2.46685e-05
4.27077e-05
5.9304e-05
6.94352e-05
7.96946e-05
9.06113e-05
0.00010173
0.000112612
0.00012296
0.000132629
0.000141551
0.000149727
0.000157173
0.000163894
0.000169879
0.000175114
0.000179588
0.000183297
0.000186261
0.000188525
0.000190154
0.00019123
0.000191842
0.000192082
0.000192035
0.000191783
0.000191392
0.000190919
0.000190409
0.000189894
0.000189401
0.000188943
0.000188531
0.000188169
0.000187853
0.000187578
0.000187334
0.00018711
0.000186885
0.000186641
0.000186339
0.000185964
0.000185438
0.00018477
0.000183815
0.000182647
0.000180935
0.000179022
0.000176056
0.000173212
0.000168235
0.000164679
0.000156579
0.000153879
0.000141501
0.000143535
0.000129416
9.86783e-07
9.64578e-07
9.46844e-07
9.30856e-07
9.15112e-07
1.00104e-06
1.2828e-07
2.0216e-06
1.40251e-05
3.05123e-05
4.82829e-05
6.34633e-05
7.3114e-05
8.2704e-05
9.28251e-05
0.000103286
0.00011364
0.000123606
0.000133017
0.000141799
0.000149904
0.000157294
0.000163923
0.00016976
0.000174782
0.000178975
0.000182355
0.000184964
0.00018687
0.000188154
0.000188911
0.00018924
0.000189236
0.000188988
0.00018857
0.000188049
0.000187478
0.000186896
0.000186335
0.000185818
0.000185357
0.000184962
0.000184633
0.000184368
0.000184158
0.000183992
0.000183852
0.00018372
0.000183559
0.000183352
0.00018302
0.000182573
0.000181863
0.000180965
0.000179541
0.000177939
0.000175294
0.000172804
0.000168177
0.000165038
0.000157353
0.000155158
0.000143375
0.00014584
0.000132659
9.8679e-07
9.64593e-07
9.46359e-07
9.33485e-07
9.1097e-07
9.54418e-07
8.06253e-07
8.47869e-07
5.63227e-06
1.86543e-05
3.53056e-05
5.24983e-05
6.68561e-05
7.60273e-05
8.48432e-05
9.43447e-05
0.000104128
0.000113877
0.000123392
0.000132504
0.000141089
0.000149037
0.000156256
0.00016268
0.000168259
0.000172956
0.00017678
0.000179766
0.000181974
0.000183489
0.00018441
0.000184843
0.000184891
0.000184652
0.000184211
0.000183642
0.000183005
0.000182352
0.000181719
0.000181135
0.00018062
0.000180187
0.000179841
0.000179582
0.000179405
0.0001793
0.000179251
0.000179242
0.000179236
0.000179218
0.000179107
0.000178916
0.000178494
0.000177916
0.00017684
0.000175616
0.000173369
0.000171311
0.000167135
0.000164492
0.000157342
0.000155707
0.000144669
0.000147536
0.000135534
9.86789e-07
9.64617e-07
9.46286e-07
9.32885e-07
9.18405e-07
9.12396e-07
9.38905e-07
6.42098e-07
1.34742e-06
8.72321e-06
2.22244e-05
3.87614e-05
5.53519e-05
6.95321e-05
7.82393e-05
8.65625e-05
9.52783e-05
0.000104232
0.000113357
0.000122385
0.000131124
0.000139383
0.000147025
0.000153932
0.000160002
0.000165174
0.000169434
0.000172797
0.000175315
0.00017707
0.000178165
0.000178711
0.000178819
0.000178595
0.000178133
0.000177516
0.000176816
0.000176089
0.000175382
0.00017473
0.000174159
0.000173686
0.000173322
0.000173071
0.000172929
0.000172891
0.000172942
0.000173067
0.000173232
0.000173425
0.000173563
0.000173662
0.000173573
0.000173366
0.000172703
0.000171927
0.000170168
0.000168627
0.000165011
0.00016295
0.00015647
0.000155451
0.000145317
0.000148565
0.000137967
9.86788e-07
9.64613e-07
9.46379e-07
9.32227e-07
9.20944e-07
9.09233e-07
9.07535e-07
9.39599e-07
5.29086e-07
1.08578e-06
1.05029e-05
2.45762e-05
4.08507e-05
5.68649e-05
7.1562e-05
7.98626e-05
8.76996e-05
9.55268e-05
0.000103798
0.000112247
0.000120685
0.000128879
0.000136655
0.000143821
0.00015022
0.000155759
0.000160382
0.000164074
0.00016687
0.000168849
0.000170112
0.000170771
0.000170941
0.000170733
0.000170252
0.00016959
0.000168827
0.000168029
0.000167251
0.000166534
0.00016591
0.000165401
0.000165022
0.000164781
0.000164678
0.000164711
0.000164866
0.000165133
0.000165481
0.000165898
0.000166305
0.000166721
0.000167
0.000167211
0.00016702
0.000166761
0.000165577
0.000164641
0.000161703
0.000160319
0.00015465
0.000154312
0.000145248
0.000148868
0.000139859
9.86789e-07
9.64604e-07
9.46427e-07
9.32096e-07
9.20887e-07
9.11436e-07
9.00847e-07
9.11122e-07
8.9139e-07
2.47317e-07
2.15748e-06
1.18279e-05
2.5734e-05
4.1549e-05
5.70536e-05
7.1164e-05
8.07434e-05
8.82483e-05
9.54988e-05
0.000102995
0.000110653
0.000118346
0.000125868
0.000132949
0.000139412
0.000145116
0.000149943
0.000153843
0.000156838
0.00015899
0.00016039
0.000161142
0.00016136
0.000161162
0.000160661
0.000159956
0.000159136
0.000158276
0.000157435
0.000156662
0.000155992
0.000155454
0.000155065
0.000154836
0.000154772
0.000154872
0.000155127
0.000155531
0.000156054
0.000156693
0.000157367
0.000158105
0.000158767
0.000159419
0.00015974
0.000160048
0.000159513
0.000159262
0.000157116
0.0001565
0.000151792
0.000152205
0.000144379
0.000148383
0.00014112
9.86789e-07
9.64601e-07
9.46432e-07
9.32114e-07
9.20745e-07
9.11592e-07
9.03435e-07
8.94069e-07
9.12892e-07
8.42925e-07
4.77532e-07
2.98599e-06
1.2259e-05
2.55977e-05
4.08555e-05
5.57771e-05
6.94627e-05
8.10557e-05
8.83089e-05
9.51918e-05
0.000101853
0.000108731
0.00011558
0.000122173
0.000128373
0.000133946
0.000138726
0.000142652
0.000145716
0.000147948
0.000149414
0.000150206
0.000150439
0.000150232
0.000149702
0.000148957
0.00014809
0.000147181
0.000146293
0.000145478
0.000144777
0.000144219
0.000143824
0.000143607
0.000143573
0.000143727
0.000144061
0.000144574
0.000145243
0.000146068
0.000146978
0.000148006
0.000149025
0.0001501
0.000150929
0.000151814
0.000151967
0.000152448
0.000151185
0.000151414
0.000147807
0.000149042
0.000142622
0.000147037
0.000141673
9.86789e-07
9.646e-07
9.46429e-07
9.32124e-07
9.20742e-07
9.11453e-07
9.03874e-07
8.96232e-07
8.90415e-07
9.07905e-07
8.00379e-07
7.73525e-07
3.14041e-06
1.16214e-05
2.4149e-05
3.86633e-05
5.30555e-05
6.64951e-05
7.88039e-05
8.77597e-05
9.43677e-05
0.000100653
0.00010661
0.000112448
0.000118083
0.00012316
0.000127608
0.000131351
0.000134315
0.000136481
0.000137892
0.000138637
0.000138827
0.000138582
0.000138016
0.000137237
0.000136337
0.000135397
0.000134484
0.000133649
0.000132934
0.000132368
0.000131972
0.000131761
0.000131742
0.000131921
0.000132296
0.000132868
0.000133621
0.000134563
0.000135629
0.000136864
0.000138156
0.000139571
0.000140839
0.000142243
0.000143056
0.000144258
0.000143916
0.000145029
0.000142632
0.000144748
0.000139886
0.000144757
0.000141433
9.86789e-07
9.646e-07
9.46428e-07
9.32123e-07
9.20747e-07
9.11452e-07
9.03682e-07
8.97225e-07
8.89996e-07
8.87721e-07
8.93729e-07
8.74606e-07
6.97901e-08
2.35653e-06
1.0039e-05
2.13653e-05
3.49602e-05
4.89249e-05
6.2131e-05
7.42648e-05
8.54488e-05
9.3006e-05
9.8892e-05
0.000104329
0.000109295
0.000113645
0.0001176
0.000120984
0.000123648
0.000125558
0.00012676
0.000127361
0.000127459
0.000127155
0.000126552
0.00012575
0.000124838
0.000123895
0.000122984
0.000122156
0.000121448
0.000120887
0.000120494
0.00012028