/*--------------------------------*- C++ -*----------------------------------*\
| =========                 |                                                 |
| \\      /  F ield         | OpenFOAM: The Open Source CFD Toolbox           |
|  \\    /   O peration     | Version:  v1906                                 |
|   \\  /    A nd           | Web:      www.OpenFOAM.com                      |
|    \\/     M anipulation  |                                                 |
\*---------------------------------------------------------------------------*/
FoamFile
{
    version     2.0;
    format      ascii;
    class       volScalarField;
    location    "0.1";
    object      omega;
}
// * * * * * * * * * * * * * * * * * * * * * * * * * * * * * * * * * * * * * //

dimensions      [0 0 -1 0 0 0 0];


internalField   nonuniform List<scalar> 
80000
(
112752
106189
104330
103229
102346
101702
101193
100791
100456
100180
99942.8
99740.6
99564.2
99410.4
99274.4
99153.9
99045.6
98947.3
98856.2
98770.1
98686.8
98604.6
98522.4
98439.5
98356
98272.2
98189.2
98107.7
98028.6
97952.7
97880
97810.4
97743
97676.7
97609.7
97539.9
97464.7
97381.3
97286.6
97177.3
97049.9
96900.7
96725.6
96520.6
96281.2
96002.9
95680.5
95309.1
94882.1
94395.1
93838.2
93209.6
92491.4
91692.2
90771.9
89773.2
88591
87375.9
85812.1
84303.9
82149.2
80614.7
78357
77878.1
79291.7
43972.5
44239.8
40090.9
38933
38460
38098.2
37799.1
37561.1
37366.8
37207
37072
36957.2
36858.1
36771.9
36696.2
36629.3
36569.5
36515.6
36466.3
36420.3
36376.6
36334.3
36292.7
36251.4
36210.2
36169.2
36128.7
36088.9
36050.4
36013.3
35977.9
35944.2
35912.2
35881.3
35851.2
35821
35790
35757.2
35721.4
35681.5
35636.4
35584.6
35524.8
35455.7
35375.7
35283.3
35176.9
35054.8
34914.8
34755.3
34573.1
34366.6
34130.6
33864.8
33558.1
33215.8
32810.7
32371.7
31840.5
31358.7
30594.1
30008
27819.4
25818.2
19723.9
24875.1
25347.8
22472.1
21363
20958.9
20713.3
20520.4
20366.2
20241.2
20138.3
20052.1
19978.9
19915.9
19861.1
19813.2
19770.9
19733.3
19699.4
19668.6
19640
19613.1
19587.2
19562
19537.2
19512.5
19488.1
19464
19440.4
19417.6
19395.7
19374.9
19355.3
19336.8
19319.4
19302.7
19286.6
19270.5
19254.1
19236.8
19218
19197.3
19174.1
19147.6
19117.4
19082.7
19043.1
18997.7
18946.1
18887.4
18821
18746.3
18661.9
18567.7
18461.4
18344
18209.6
18064.8
17891.6
17722.7
17493.6
17319.6
16953.8
16653.4
14577.1
12045.6
15844.6
17779.6
15601.8
14485.6
14061.1
13841.7
13684.3
13560.5
13461.1
13379.7
13312
13254.8
13205.8
13163.4
13126.4
13093.8
13065
13039.1
13015.8
12994.3
12974.4
12955.4
12937.2
12919.4
12901.9
12884.6
12867.6
12850.9
12834.8
12819.4
12804.8
12791.1
12778.3
12766.6
12755.7
12745.7
12736.2
12727.1
12718.2
12709.3
12699.9
12690
12679.3
12667.4
12654.2
12639.5
12623
12604.7
12584.5
12562.1
12537.7
12510.9
12482.5
12451.2
12419.7
12383.8
12352.8
12311.5
12295.5
12240.6
12280.6
12169.4
12426.4
11239.1
11162.9
10768.6
13705.2
12097.2
10983.3
10520.3
10298.4
10153.1
10042.6
9955.11
9884.07
9825.45
9776.13
9734.16
9697.96
9666.51
9638.92
9614.57
9592.9
9573.45
9555.78
9539.51
9524.28
9509.8
9495.83
9482.19
9468.81
9455.68
9442.84
9430.4
9418.47
9407.2
9396.69
9387.04
9378.3
9370.5
9363.61
9357.58
9352.32
9347.76
9343.79
9340.3
9337.21
9334.45
9331.95
9329.69
9327.66
9325.94
9324.57
9323.75
9323.6
9324.6
9326.76
9331.15
9337.49
9348.38
9361.85
9385.57
9411.14
9465.49
9508.49
9638.16
9691.49
10131.1
9613.34
10994.2
7581.92
11027.9
9997.27
8914.22
8413.36
8177.34
8033.45
7928.37
7846.76
7781.11
7727.36
7682.42
7644.37
7611.69
7583.41
7558.69
7536.96
7517.72
7500.57
7485.13
7471.07
7458.08
7445.89
7434.26
7423.02
7412.05
7401.32
7390.83
7380.66
7370.9
7361.68
7353.11
7345.32
7338.38
7332.36
7327.29
7323.19
7320.05
7317.86
7316.59
7316.23
7316.79
7318.29
7320.75
7324.26
7328.92
7334.9
7342.4
7351.71
7363.13
7377.25
7394.39
7415.61
7441.27
7473.61
7512.3
7563.2
7622.86
7710.52
7805
7977.05
8122.5
8623.32
8516.8
10606.9
5475.59
8999.15
8574.56
7570.68
7039.44
6783.89
6635.36
6531.3
6452.14
6389.18
6338.05
6295.57
6259.78
6229.19
6202.8
6179.82
6159.69
6141.95
6126.24
6112.21
6099.56
6088.01
6077.31
6067.22
6057.55
6048.18
6039.05
6030.13
6021.48
6013.17
6005.32
5998.05
5991.47
5985.69
5980.79
5976.84
5973.9
5971.98
5971.14
5971.38
5972.75
5975.3
5979.09
5984.22
5990.82
5999.04
6009.11
6021.28
6035.9
6053.38
6074.32
6099.2
6129.06
6164.61
6207.77
6259.24
6323.46
6400.23
6503.27
6623.71
6817.32
7011.77
7520.16
7659.39
9946.77
3785.28
7348.48
7503.56
6639.39
6087.14
5809.86
5652.86
5546.86
5467.97
5406.02
5356.11
5314.91
5280.38
5250.98
5225.72
5203.79
5184.65
5167.86
5153.05
5139.93
5128.2
5117.62
5107.91
5098.87
5090.29
5082.04
5074.02
5066.21
5058.64
5051.36
5044.48
5038.12
5032.38
5027.39
5023.25
5020.02
5017.79
5016.62
5016.55
5017.64
5019.96
5023.58
5028.59
5035.12
5043.32
5053.37
5065.53
5080.07
5097.37
5117.87
5142.17
5170.85
5204.88
5245.17
5293.38
5350.82
5420.94
5505.5
5614.94
5747.37
5949.59
6170.23
6660.26
6945.94
9147.97
2008.74
6030.4
6626.41
5954.55
5398
5098.99
4930.94
4820.83
4740.64
4678.49
4628.84
4588.13
4554.16
4525.38
4500.73
4479.4
4460.85
4444.62
4430.38
4417.83
4406.71
4396.77
4387.75
4379.43
4371.62
4364.16
4356.96
4349.97
4343.18
4336.67
4330.51
4324.82
4319.71
4315.28
4311.66
4308.92
4307.16
4306.43
4306.81
4308.37
4311.18
4315.33
4320.94
4328.13
4337.07
4347.96
4361.05
4376.64
4395.1
4416.89
4442.57
4472.79
4508.43
4550.51
4600.5
4660.01
4731.88
4818.97
4930.72
5067.44
5268.54
5503.98
5963.75
6335.19
8331.97
988.13
4944.25
5853.06
5416.86
4883.29
4564.05
4383.18
4267.24
4184.47
4121.21
4071.1
4030.28
3996.39
3967.79
3943.38
3922.33
3904.07
3888.15
3874.23
3862.03
3851.29
3841.76
3833.2
3825.39
3818.13
3811.25
3804.65
3798.27
3792.09
3786.16
3780.56
3775.38
3770.74
3766.74
3763.5
3761.1
3759.64
3759.18
3759.81
3761.6
3764.64
3769.01
3774.84
3782.26
3791.44
3802.57
3815.91
3831.76
3850.48
3872.52
3898.43
3928.85
3964.6
4006.74
4056.57
4115.88
4187.21
4273.95
4385.31
4522.77
4716.52
4958.62
5384.81
5802.98
7563.94
585.067
4032.26
5138.44
4965.69
4486.49
4152.54
3957.84
3834.57
3748.16
3683
3631.84
3590.44
3556.24
3527.49
3503.05
3482.02
3463.83
3448.01
3434.23
3422.21
3411.67
3402.4
3394.14
3386.67
3379.8
3373.35
3367.2
3361.28
3355.57
3350.11
3344.94
3340.17
3335.91
3332.25
3329.29
3327.14
3325.88
3325.59
3326.34
3328.23
3331.32
3335.72
3341.54
3348.92
3358.03
3369.05
3382.24
3397.87
3416.31
3437.98
3463.42
3493.24
3528.21
3569.38
3617.93
3675.74
3745.46
3830.54
3938.75
4074.72
4258.53
4500.02
4893.77
5332.92
6867.21
503.813
3266.24
4522.29
4565.24
4167.59
3831
3622.13
3490.24
3399.18
3331.43
3278.7
3236.31
3201.46
3172.3
3147.58
3126.38
3108.09
3092.22
3078.43
3066.44
3055.99
3046.83
3038.75
3031.5
3024.9
3018.76
3012.95
3007.39
3002.06
2996.96
2992.15
2987.72
2983.76
2980.36
2977.64
2975.68
2974.56
2974.36
2975.17
2977.05
2980.1
2984.41
2990.09
2997.27
3006.12
3016.82
3029.6
3044.74
3062.58
3083.51
3108.06
3136.81
3170.46
3210.06
3256.72
3312.36
3379.91
3462.52
3565.84
3698.01
3871.43
4106.92
4470.37
4913.57
6245.92
546.438
2618.49
3995.03
4193.04
3898.35
3575
3354.29
3212.67
3116.02
3045
2990.21
2946.46
2910.68
2880.86
2855.67
2834.12
2815.57
2799.52
2785.6
2773.53
2763.05
2753.92
2745.9
2738.78
2732.35
2726.43
2720.87
2715.6
2710.56
2705.76
2701.25
2697.1
2693.4
2690.23
2687.69
2685.88
2684.86
2684.71
2685.52
2687.36
2690.31
2694.46
2699.91
2706.81
2715.29
2725.53
2737.77
2752.24
2769.28
2789.28
2812.7
2840.09
2872.14
2909.83
2954.35
3007.72
3072.37
3151.69
3249.53
3376.16
3539.29
3765.32
4100.52
4536.47
5696.39
622.224
2073.47
3509.51
3833.86
3658.7
3365.25
3138.5
2987.1
2883.92
2808.95
2751.62
2706.15
2669.16
2638.46
2612.61
2590.56
2571.62
2555.26
2541.12
2528.87
2518.26
2509.07
2501.04
2493.97
2487.63
2481.85
2476.48
2471.42
2466.62
2462.08
2457.82
2453.91
2450.43
2447.46
2445.08
2443.38
2442.44
2442.33
2443.11
2444.87
2447.68
2451.63
2456.82
2463.37
2471.42
2481.15
2492.75
2506.47
2522.62
2541.54
2563.71
2589.61
2619.91
2655.6
2697.99
2748.91
2810.13
2885.54
2977.8
3097.88
3250.87
3465.45
3774.26
4195.25
5211.32
700.349
1581.05
3040
3492.23
3434.82
3186.73
2962.05
2802.71
2692.52
2612.88
2552.5
2504.94
2466.47
2434.67
2407.98
2385.28
2365.83
2349.06
2334.58
2322.07
2311.26
2301.93
2293.82
2286.71
2280.41
2274.71
2269.47
2264.58
2259.97
2255.64
2251.6
2247.9
2244.61
2241.81
2239.58
2237.98
2237.1
2237
2237.75
2239.42
2242.07
2245.8
2250.7
2256.88
2264.48
2273.65
2284.58
2297.51
2312.71
2330.52
2351.37
2375.73
2404.26
2438.03
2478.22
2526.41
2584.06
2655.23
2741.94
2855.01
2998.07
3200.14
3484.33
3885.01
4782.24
772.033
1044.93
2564.9
3177.49
3217.43
3027.26
2814.49
2650.66
2534
2449.27
2385.3
2335.26
2295.02
2261.9
2234.2
2210.7
2190.62
2173.33
2158.42
2145.57
2134.48
2124.93
2116.68
2109.48
2103.15
2097.49
2092.33
2087.56
2083.11
2078.95
2075.1
2071.59
2068.48
2065.84
2063.73
2062.23
2061.4
2061.31
2062.02
2063.58
2066.08
2069.59
2074.19
2079.99
2087.12
2095.72
2105.97
2118.09
2132.34
2149.03
2168.56
2191.4
2218.27
2250.16
2287.99
2333.33
2387.43
2454.24
2535.49
2641.44
2774.87
2964
3225.28
3602
4400.83
828.128
624.722
2088.74
2869.62
2998.33
2877.08
2687.04
2523.56
2401.9
2312.28
2244.47
2191.52
2149.2
2114.53
2085.62
2061.18
2040.33
2022.42
2007
1993.72
1982.29
1972.46
1963.99
1956.65
1950.24
1944.56
1939.44
1934.76
1930.44
1926.43
1922.75
1919.41
1916.46
1913.96
1911.98
1910.57
1909.79
1909.7
1910.36
1911.83
1914.17
1917.45
1921.76
1927.19
1933.85
1941.89
1951.47
1962.8
1976.1
1991.68
2009.94
2031.36
2056.66
2086.63
2122.05
2164.52
2215.15
2277.64
2353.56
2452.48
2576.66
2752.79
2992.88
3343.35
4059.72
859.001
485.174
1645.76
2552.94
2779.81
2729.14
2571.95
2415.09
2290.77
2196.96
2125.46
2069.5
2024.8
1988.3
1957.99
1932.45
1910.7
1892.06
1876.04
1862.24
1850.39
1840.22
1831.48
1823.94
1817.41
1811.67
1806.55
1801.92
1797.7
1793.82
1790.29
1787.1
1784.31
1781.95
1780.08
1778.76
1778.03
1777.95
1778.57
1779.95
1782.14
1785.2
1789.23
1794.29
1800.51
1808
1816.93
1827.48
1839.87
1854.39
1871.46
1891.57
1915.29
1943.32
1976.4
2016.05
2063.31
2121.6
2192.38
2284.47
2399.81
2563.19
2783.74
3106.79
3752.8
867.73
505.497
1240.65
2220.08
2564.13
2578.56
2462.36
2319.55
2195.96
2099.18
2024.39
1965.6
1918.47
1879.99
1848.05
1821.24
1798.45
1778.97
1762.23
1747.85
1735.5
1724.91
1715.84
1708.06
1701.35
1695.52
1690.37
1685.76
1681.61
1677.84
1674.44
1671.4
1668.75
1666.53
1664.77
1663.54
1662.86
1662.8
1663.39
1664.68
1666.73
1669.59
1673.34
1678.06
1683.84
1690.82
1699.12
1708.93
1720.46
1734
1750
1768.83
1790.96
1817.09
1847.91
1884.83
1928.85
1983.09
2048.95
2134.46
2241.44
2392.46
2595.03
2890.5
3475.17
864.013
576.195
827.743
1857.14
2341.56
2420.34
2352.7
2231.52
2113.21
2015.37
1938.01
1876.68
1827.29
1786.86
1753.24
1725.01
1701.03
1680.58
1663.02
1647.95
1635.03
1623.96
1614.5
1606.42
1599.5
1593.52
1588.3
1583.7
1579.6
1575.92
1572.64
1569.73
1567.22
1565.13
1563.5
1562.35
1561.73
1561.68
1562.25
1563.47
1565.39
1568.06
1571.56
1575.95
1581.33
1587.81
1595.53
1604.65
1615.39
1628.05
1643.01
1660.56
1681.15
1705.45
1734.1
1768.41
1809.32
1859.69
1920.86
2000.11
2099.19
2238.38
2424.43
2692.89
3223.01
856.877
636.286
494.713
1470.65
2102.35
2259.54
2239.12
2145.97
2038.34
1942.25
1863.52
1800.14
1748.73
1706.49
1671.3
1641.65
1616.42
1594.89
1576.39
1560.54
1546.95
1535.33
1525.42
1516.99
1509.8
1503.64
1498.32
1493.69
1489.61
1486.02
1482.84
1480.07
1477.69
1475.73
1474.21
1473.16
1472.61
1472.59
1473.14
1474.29
1476.1
1478.61
1481.87
1485.96
1490.96
1496.98
1504.16
1512.65
1522.69
1534.52
1548.44
1564.74
1583.85
1606.39
1632.98
1664.8
1702.75
1749.44
1806.17
1879.47
1971.13
2099.07
2269.94
2512.55
2993.37
851.683
664.427
409.011
1100.03
1835.1
2094.06
2117.78
2058.6
1967.24
1876.56
1798.32
1733.73
1680.68
1636.82
1600.17
1569.2
1542.81
1520.19
1500.72
1484
1469.66
1457.4
1446.97
1438.13
1430.62
1424.24
1418.79
1414.1
1410.04
1406.5
1403.43
1400.77
1398.53
1396.7
1395.3
1394.35
1393.87
1393.89
1394.43
1395.54
1397.25
1399.61
1402.66
1406.47
1411.14
1416.74
1423.43
1431.36
1440.73
1451.72
1464.64
1479.74
1497.43
1518.3
1542.92
1572.38
1607.53
1650.73
1703.27
1770.93
1855.63
1972.97
2129.84
2348.18
2783.98
849.758
666.89
455.15
732.966
1527.56
1913.22
1991.31
1966.27
1895.93
1814.99
1739.83
1675.31
1621.26
1576.11
1538.17
1506
1478.53
1454.9
1434.52
1416.94
1401.82
1388.87
1377.86
1368.54
1360.66
1354.01
1348.4
1343.62
1339.55
1336.06
1333.07
1330.54
1328.43
1326.74
1325.46
1324.61
1324.21
1324.28
1324.84
1325.92
1327.55
1329.77
1332.64
1336.21
1340.58
1345.82
1352.06
1359.45
1368.14
1378.32
1390.26
1404.22
1420.57
1439.85
1462.6
1489.82
1522.32
1562.23
1610.8
1673.16
1751.34
1858.72
2002.67
2198.55
2592.95
849.959
659.252
513.998
421.948
1181.87
1706.14
1860.06
1865.99
1820.94
1754.23
1685.32
1622.73
1568.68
1522.77
1483.83
1450.63
1422.18
1397.63
1376.4
1358.02
1342.16
1328.55
1316.94
1307.11
1298.83
1291.9
1286.08
1281.19
1277.09
1273.63
1270.73
1268.31
1266.33
1264.77
1263.63
1262.9
1262.59
1262.72
1263.3
1264.37
1265.94
1268.06
1270.77
1274.13
1278.22
1283.12
1288.92
1295.77
1303.8
1313.19
1324.21
1337.08
1352.16
1369.93
1390.91
1416.01
1446.01
1482.81
1527.65
1585.03
1657.09
1755.18
1887.16
2062.49
2418.69
850.689
653.103
538.962
357.187
826.105
1454.64
1715.06
1760.33
1739.86
1691.24
1631.98
1573.68
1521.07
1475.23
1435.78
1401.84
1372.57
1347.22
1325.21
1306.09
1289.54
1275.3
1263.12
1252.8
1244.12
1236.88
1230.85
1225.84
1221.69
1218.25
1215.42
1213.11
1211.27
1209.86
1208.86
1208.26
1208.06
1208.27
1208.9
1209.97
1211.51
1213.55
1216.12
1219.29
1223.1
1227.66
1233.04
1239.36
1246.76
1255.41
1265.55
1277.39
1291.25
1307.6
1326.92
1350.01
1377.66
1411.52
1452.86
1505.56
1571.9
1661.33
1782.21
1938.9
2259.79
851.105
651.396
537.419
410.555
479.759
1146.23
1543.2
1650.66
1653.01
1623.54
1577.02
1525.72
1476.43
1431.87
1392.63
1358.4
1328.6
1302.61
1279.94
1260.16
1242.97
1228.14
1215.43
1204.64
1195.57
1188.02
1181.77
1176.63
1172.42
1169
1166.24
1164.04
1162.34
1161.08
1160.24
1159.79
1159.73
1160.04
1160.75
1161.86
1163.39
1165.36
1167.82
1170.81
1174.39
1178.62
1183.6
1189.43
1196.24
1204.18
1213.49
1224.35
1237.08
1252.08
1269.82
1291.03
1316.46
1347.57
1385.61
1433.93
1494.92
1576.31
1686.85
1826.75
2115.05
851.159
652.002
530.307
449.456
325.055
804.365
1324.35
1527.75
1563.04
1549.53
1517.93
1476.38
1432.63
1390.9
1352.91
1319.07
1289.17
1262.83
1239.66
1219.35
1201.61
1186.25
1173.04
1161.81
1152.36
1144.51
1138.04
1132.77
1128.5
1125.08
1122.39
1120.31
1118.76
1117.67
1117.01
1116.74
1116.83
1117.28
1118.09
1119.27
1120.82
1122.76
1125.14
1127.98
1131.34
1135.28
1139.9
1145.27
1151.53
1158.81
1167.35
1177.3
1188.95
1202.69
1218.95
1238.39
1261.72
1290.24
1325.19
1369.42
1425.4
1499.34
1600.26
1725.09
1983.39
851.091
652.695
527.251
454.816
349.538
473.304
1042.19
1374.31
1467.58
1471.66
1453.19
1423.43
1387.49
1350.42
1315.02
1282.48
1253.1
1226.82
1203.46
1182.81
1164.67
1148.86
1135.23
1123.6
1113.8
1105.67
1098.99
1093.58
1089.26
1085.85
1083.23
1081.27
1079.88
1078.98
1078.51
1078.44
1078.72
1079.34
1080.28
1081.55
1083.15
1085.1
1087.42
1090.16
1093.34
1097.04
1101.32
1106.28
1112.04
1118.71
1126.54
1135.63
1146.28
1158.83
1173.7
1191.48
1212.85
1238.95
1271
1311.39
1362.69
1429.74
1521.69
1633.02
1863.82
851.048
652.869
527.475
448.775
389.08
300.375
707.618
1165.17
1355.15
1392.43
1384.72
1365.54
1339.07
1308.51
1277.24
1247.15
1219.11
1193.49
1170.36
1149.68
1131.34
1115.26
1101.3
1089.35
1079.26
1070.88
1064.02
1058.49
1054.12
1050.74
1048.2
1046.37
1045.15
1044.45
1044.19
1044.33
1044.83
1045.64
1046.75
1048.15
1049.83
1051.82
1054.13
1056.78
1059.83
1063.32
1067.32
1071.92
1077.22
1083.34
1090.5
1098.81
1108.53
1119.98
1133.55
1149.78
1169.31
1193.14
1222.47
1259.28
1306.2
1366.89
1450.48
1549.73
1755.4
851.043
652.802
528.124
445.749
395.51
318.523
391.939
884.099
1204.41
1304.93
1315.83
1304.07
1286.2
1263.44
1237.82
1211.46
1185.78
1161.58
1139.27
1118.99
1100.79
1084.65
1070.55
1058.41
1048.12
1039.56
1032.57
1026.96
1022.56
1019.22
1016.77
1015.09
1014.06
1013.57
1013.55
1013.93
1014.65
1015.68
1016.98
1018.54
1020.34
1022.4
1024.72
1027.34
1030.29
1033.61
1037.38
1041.66
1046.56
1052.19
1058.76
1066.34
1075.21
1085.64
1098.01
1112.79
1130.62
1152.33
1179.11
1212.6
1255.42
1310.26
1386.06
1474.49
1657.26
851.048
652.748
528.281
445.905
390.644
349.431
272.693
550.023
982.245
1190.24
1242.85
1242.54
1230.1
1214.25
1195.2
1173.78
1151.57
1129.75
1109
1089.7
1072.06
1056.22
1042.23
1030.09
1019.74
1011.12
1004.06
998.43
994.059
990.788
988.466
986.951
986.121
985.866
986.095
986.729
987.703
988.967
990.483
992.223
994.175
996.336
998.714
1001.33
1004.22
1007.42
1011
1015.02
1019.58
1024.77
1030.81
1037.75
1045.85
1055.35
1066.63
1080.08
1096.32
1116.06
1140.48
1170.87
1209.87
1259.32
1327.88
1406.62
1568.6
851.05
652.739
528.224
446.357
388.866
350.685
305.416
281.841
658.98
1012.81
1151.46
1179.42
1174.3
1162.29
1148.64
1132.8
1115.06
1096.59
1078.24
1060.61
1044.1
1029
1015.47
1003.61
993.42
984.892
977.905
972.345
968.068
964.925
962.767
961.451
960.85
960.848
961.343
962.247
963.489
965.006
966.754
968.699
970.82
973.11
975.572
978.224
981.094
984.222
987.661
991.477
995.758
1000.59
1006.18
1012.56
1019.97
1028.66
1038.94
1051.18
1065.97
1083.91
1106.15
1133.68
1169.12
1213.62
1275.46
1345.52
1488.67
851.049
652.741
528.187
446.418
389.162
347.395
319.167
264.28
350.605
743.268
1012.14
1103.49
1118.16
1111.11
1099.89
1088.21
1075.26
1060.86
1045.7
1030.49
1015.76
1001.95
989.338
978.11
968.367
960.159
953.417
948.065
943.988
941.052
939.116
938.043
937.703
937.977
938.756
939.946
941.465
943.248
945.24
947.403
949.711
952.152
954.726
957.446
960.338
963.437
966.794
970.469
974.544
979.094
984.323
990.246
997.09
1005.07
1014.49
1025.67
1039.16
1055.46
1075.7
1100.62
1132.77
1172.74
1228.37
1290.64
1416.78
851.048
652.74
528.182
446.376
389.358
347.058
316.346
290.169
242.693
415.105
778.747
987.87
1052.13
1060.15
1052.53
1042.52
1032.47
1021.9
1010.36
998.192
985.895
973.969
962.777
952.624
943.689
936.09
929.825
924.867
921.133
918.511
916.877
916.104
916.066
916.643
917.724
919.21
921.014
923.066
925.306
927.693
930.197
932.804
935.512
938.331
941.284
944.406
947.741
951.347
955.301
959.668
964.645
970.231
976.638
984.055
992.769
1003.05
1015.43
1030.3
1048.74
1071.29
1100.43
1136.29
1186.19
1241.48
1352.32
851.047
652.737
528.18
446.361
389.338
347.338
315.032
291.239
266.247
228.751
441.029
773.864
949.256
1000.29
1005.58
998.602
989.664
980.782
972.047
963.017
953.54
944
934.743
926.139
918.417
911.77
906.268
901.932
898.718
896.544
895.312
894.911
895.225
896.137
897.537
899.324
901.412
903.725
906.207
908.812
911.512
914.291
917.147
920.091
923.144
926.339
929.721
933.341
937.272
941.573
946.429
951.827
957.962
964.999
973.201
982.793
994.27
1007.94
1024.84
1045.31
1071.73
1103.9
1148.57
1197.6
1294.72
851.046
652.733
528.175
446.359
389.312
347.383
315.144
289.708
270.68
245.803
226.09
440.844
744.024
902.969
949.312
954.493
948.79
940.743
932.888
925.53
918.455
911.406
904.392
897.725
891.591
886.254
881.825
878.363
875.865
874.293
873.58
873.637
874.359
875.637
877.367
879.452
881.807
884.363
887.062
889.865
892.744
895.688
898.696
901.783
904.971
908.293
911.793
915.521
919.544
923.915
928.808
934.199
940.265
947.147
955.08
964.247
975.101
987.871
1003.53
1022.25
1046.3
1075.2
1115.14
1158.59
1243.42
851.045
652.73
528.17
446.354
389.305
347.363
315.214
289.667
269.227
253.125
230.606
222.803
419.872
697.182
851.229
899.359
906.68
902.495
895.537
888.557
882.265
876.667
871.594
866.886
862.514
858.746
855.637
853.262
851.666
850.851
850.779
851.377
852.557
854.222
856.278
858.639
861.228
863.984
866.858
869.816
872.84
875.923
879.073
882.307
885.654
889.149
892.836
896.767
901.004
905.598
910.707
916.305
922.547
929.55
937.519
946.592
957.173
969.416
984.211
1001.61
1023.69
1049.81
1085.56
1124.07
1197.98
851.044
652.726
528.165
446.348
389.3
347.354
315.201
289.745
269.017
252.226
238.203
219.573
212.501
373.665
631.232
793.588
850.119
861.338
859.147
853.645
847.678
842.353
837.9
834.246
831.317
829.024
827.228
826.014
825.42
825.46
826.105
827.29
828.938
830.974
833.32
835.904
838.666
841.555
844.535
847.584
850.693
853.867
857.122
860.485
863.99
867.679
871.601
875.81
880.369
885.33
890.838
896.871
903.564
911.01
919.376
928.762
939.51
951.703
966.129
982.713
1003.36
1027.26
1059.43
1093.69
1157.96
851.043
652.723
528.16
446.342
389.294
347.349
315.191
289.741
269.078
251.949
237.842
225.635
210.587
199.718
313.52
544.674
723.479
798.145
817.077
818.234
814.659
810.105
805.802
802.299
799.789
798.08
797.15
796.894
797.179
797.988
799.273
800.966
803.007
805.334
807.886
810.606
813.45
816.38
819.377
822.431
825.546
828.738
832.033
835.465
839.079
842.925
847.061
851.55
856.463
861.861
867.886
874.528
881.906
890.096
899.235
909.386
920.819
933.545
948.227
964.673
984.559
1006.96
1036.29
1067.02
1122.88
851.042
652.719
528.155
446.337
389.288
347.343
315.185
289.731
269.08
251.981
237.603
225.523
215.034
202.895
189.379
248.756
435.505
629.884
736.403
771.695
778.857
778.105
775.366
772.455
770.057
768.39
767.63
767.672
768.348
769.555
771.171
773.147
775.411
777.893
780.535
783.29
786.123
789.013
791.95
794.937
797.984
801.115
804.359
807.759
811.363
815.231
819.432
824.042
829.15
834.837
841.255
848.429
856.484
865.512
875.64
886.909
899.515
913.397
929.062
946.199
966.195
988.019
1015.43
1043.54
1092.26
851.041
652.715
528.149
446.33
389.282
347.337
315.179
289.725
269.072
251.984
237.61
225.373
214.905
205.935
195.756
183.921
199.44
321.001
507.279
651.3
718.435
738.807
743.005
742.955
741.847
740.834
740.283
740.359
741.094
742.384
744.103
746.172
748.508
751.035
753.687
756.426
759.226
762.07
764.952
767.874
770.844
773.882
777.014
780.277
783.717
787.394
791.381
795.761
800.636
806.109
812.365
819.514
827.734
837.169
847.991
860.269
874.164
889.586
906.863
925.562
946.696
969.096
995.787
1022.43
1065.51
851.04
652.712
528.144
446.324
389.275
347.33
315.173
289.719
269.065
251.977
237.611
225.372
214.825
205.71
197.843
189.655
180.325
175.517
227.413
366.007
526.922
638.747
690.181
706.928
711.545
713.22
714.121
714.926
716.024
717.537
719.454
721.667
724.105
726.706
729.418
732.207
735.051
737.933
740.843
743.778
746.739
749.735
752.781
755.904
759.141
762.543
766.176
770.121
774.478
779.356
784.937
791.357
798.857
807.665
818.064
830.327
844.726
861.259
880.146
900.892
924.062
948.301
975.737
1002.4
1041.76
851.039
652.708
528.138
446.318
389.269
347.324
315.167
289.712
269.059
251.971
237.605
225.368
214.828
205.654
197.661
190.637
184.105
176.472
168.889
175.872
241.822
369.436
506.078
604.432
655.956
676.914
684.566
688.198
690.997
693.675
696.365
699.093
701.883
704.744
707.673
710.65
713.659
716.685
719.718
722.751
725.782
728.815
731.859
734.932
738.064
741.297
744.687
748.3
752.22
756.541
761.425
766.955
773.368
780.933
789.968
800.868
814.103
830.07
849.227
871.293
896.524
923.423
953.039
981.445
1019.54
851.038
652.704
528.132
446.311
389.262
347.317
315.16
289.706
269.053
251.965
237.599
225.362
214.823
205.657
197.619
190.539
184.284
178.661
172.835
166.159
161.157
172.725
229.27
330.227
443.549
537.561
600.189
635.797
654.342
664.135
670.067
674.446
678.212
681.712
685.08
688.365
691.589
694.76
697.878
700.949
703.985
707.011
710.062
713.182
716.421
719.828
723.437
727.269
731.353
735.72
740.489
745.71
751.56
758.267
766.11
775.391
786.635
800.451
817.664
838.709
864.228
893.062
925.374
956.933
996.664
851.037
652.699
528.126
446.305
389.255
347.31
315.153
289.7
269.047
251.959
237.593
225.357
214.817
205.653
197.617
190.522
184.22
178.617
173.594
168.891
163.812
158.256
154.598
161.124
192.308
252.207
328.539
404.41
468.405
516.714
550.622
573.331
588
597.037
602.094
604.287
604.435
603.228
601.343
599.471
598.309
598.537
600.761
605.413
612.61
622.255
634.085
647.726
662.65
678.143
693.157
707.385
720.299
731.856
742.433
752.658
763.386
775.467
790.027
808.045
830.899
858.734
892.034
926.503
970.264
851.035
652.695
528.12
446.298
389.248
347.303
315.146
289.693
269.041
251.952
237.587
225.351
214.811
205.647
197.612
190.518
184.214
178.581
173.531
168.997
164.869
160.908
156.705
152.218
148.462
147.866
154.167
170.21
194.961
223.889
251.864
275.246
292.342
302.98
307.919
308.384
305.778
301.506
296.867
293.031
290.593
290.91
294.664
301.871
313.708
330.143
352.016
379.783
412.97
451.781
494.755
540.863
586.92
630.338
668.834
701.047
726.859
747.445
765.055
782.182
801.769
825.717
856.221
890.381
937.948
851.034
652.691
528.114
446.291
389.241
347.296
315.139
289.686
269.034
251.946
237.581
225.345
214.805
205.641
197.607
190.513
184.209
178.576
173.517
168.955
164.83
161.09
157.652
154.379
151.085
147.688
144.359
141.473
139.425
138.42
138.366
138.904
139.572
139.99
139.968
139.5
138.697
137.711
136.684
135.725
135.073
134.637
134.574
135.321
137.121
140.822
147.192
157.385
172.956
195.763
227.172
269.611
323.498
387.921
459.675
533.809
603.478
663.39
710.7
746.078
773.295
797.24
823.919
853.658
900.631
851.033
652.687
528.108
446.284
389.234
347.289
315.132
289.679
269.027
251.939
237.575
225.338
214.799
205.635
197.601
190.507
184.204
178.571
173.513
168.948
164.812
161.053
157.627
154.499
151.622
148.944
146.411
143.993
141.698
139.569
137.654
135.983
134.554
133.342
132.308
131.413
130.622
129.904
129.232
128.579
127.924
127.213
126.395
125.436
124.264
122.895
121.345
119.748
118.591
118.635
121.1
128.57
144.807
174.102
220.513
286.308
369.727
464.187
558.725
642.805
708.878
756.53
792.267
821.11
863.646
851.032
652.682
528.101
446.276
389.226
347.281
315.125
289.672
269.02
251.933
237.568
225.332
214.793
205.629
197.595
190.501
184.198
178.566
173.508
168.944
164.808
161.045
157.611
154.47
151.591
148.952
146.532
144.311
142.275
140.415
138.726
137.205
135.851
134.659
133.62
132.725
131.962
131.32
130.785
130.346
129.986
129.691
129.439
129.201
128.934
128.572
128.022
127.147
125.785
123.724
120.887
117.398
114.137
113.265
118.543
136.106
173.462
237.526
328.328
438.989
552.462
652.262
728.53
779.903
828.335
851.03
652.678
528.095
446.269
389.218
347.274
315.118
289.665
269.013
251.926
237.561
225.326
214.787
205.623
197.589
190.496
184.193
178.56
173.502
168.938
164.803
161.04
157.606
154.463
151.58
148.934
146.506
144.282
142.251
140.403
138.732
137.231
135.893
134.712
133.682
132.793
132.037
131.403
130.882
130.462
130.134
129.889
129.718
129.614
129.571
129.58
129.629
129.689
129.704
129.551
129.051
127.837
125.492
121.66
116.49
111.581
111.094
123.154
158.35
227.401
330.816
457.537
583.514
686.399
773.909
851.029
652.673
528.088
446.261
389.211
347.266
315.11
289.657
269.006
251.919
237.555
225.319
214.78
205.617
197.583
190.49
184.187
178.555
173.497
168.933
164.797
161.035
157.601
154.458
151.575
148.929
146.5
144.274
142.241
140.391
138.719
137.217
135.88
134.7
133.67
132.782
132.026
131.392
130.869
130.447
130.114
129.862
129.68
129.561
129.499
129.491
129.535
129.638
129.805
130.04
130.348
130.644
130.757
130.299
128.637
124.981
118.99
112.066
109.383
121.856
163.968
248.644
371.72
508.55
658.935
851.028
652.668
528.081
446.254
389.203
347.258
315.102
289.65
268.999
251.912
237.548
225.312
214.774
205.61
197.577
190.484
184.181
178.549
173.491
168.927
164.792
161.03
157.596
154.453
151.57
148.923
146.495
144.269
142.236
140.386
138.714
137.212
135.875
134.695
133.666
132.778
132.022
131.388
130.865
130.443
130.111
129.857
129.674
129.551
129.482
129.46
129.482
129.544
129.652
129.81
130.054
130.389
130.851
131.426
131.974
132.053
130.797
126.944
119.828
111.435
109.795
130.574
193.042
295.369
472.76
851.027
652.663
528.074
446.246
389.195
347.25
315.094
289.642
268.991
251.905
237.541
225.306
214.767
205.604
197.571
190.478
184.175
178.543
173.485
168.921
164.786
161.024
157.59
154.447
151.565
148.918
146.489
144.264
142.23
140.381
138.709
137.207
135.87
134.691
133.662
132.774
132.019
131.385
130.863
130.441
130.109
129.856
129.673
129.55
129.481
129.459
129.479
129.538
129.634
129.763
129.949
130.18
130.491
130.929
131.56
132.411
133.348
133.758
132.393
127.385
118.506
109.682
117.307
147.997
278.48
851.025
652.658
528.067
446.238
389.186
347.242
315.086
289.634
268.984
251.897
237.534
225.299
214.761
205.597
197.564
190.471
184.169
178.537
173.479
168.916
164.78
161.019
157.585
154.442
151.559
148.913
146.484
144.258
142.225
140.376
138.704
137.202
135.866
134.687
133.658
132.771
132.016
131.382
130.86
130.439
130.107
129.854
129.671
129.549
129.48
129.459
129.479
129.539
129.636
129.766
129.948
130.163
130.426
130.752
131.181
131.78
132.663
133.874
135.219
135.603
133.309
125.323
116.828
104.466
155.608
851.024
652.653
528.06
446.23
389.178
347.233
315.078
289.627
268.976
251.89
237.527
225.292
214.754
205.591
197.558
190.465
184.163
178.531
173.473
168.91
164.775
161.013
157.579
154.436
151.553
148.907
146.478
144.253
142.219
140.37
138.698
137.197
135.861
134.682
133.654
132.767
132.012
131.38
130.858
130.437
130.105
129.853
129.67
129.548
129.479
129.458
129.478
129.538
129.635
129.766
129.949
130.167
130.431
130.749
131.132
131.599
132.212
133.065
134.352
136.019
137.744
136.863
133.274
118.457
118.507
851.022
652.648
528.052
446.221
389.169
347.225
315.07
289.618
268.968
251.882
237.519
225.285
214.747
205.584
197.551
190.459
184.156
178.525
173.467
168.904
164.769
161.007
157.573
154.43
151.548
148.901
146.472
144.247
142.214
140.365
138.693
137.192
135.856
134.678
133.65
132.763
132.009
131.377
130.855
130.434
130.103
129.851
129.668
129.547
129.478
129.457
129.477
129.536
129.633
129.763
129.946
130.164
130.429
130.75
131.137
131.597
132.15
132.815
133.706
134.937
136.871
138.836
140.467
136.997
126.158
851.021
652.643
528.045
446.213
389.161
347.216
315.062
289.61
268.96
251.875
237.512
225.277
214.74
205.577
197.545
190.452
184.15
178.519
173.461
168.898
164.763
161.001
157.568
154.425
151.542
148.895
146.467
144.241
142.208
140.36
138.688
137.187
135.852
134.674
133.646
132.76
132.006
131.374
130.853
130.432
130.101
129.849
129.667
129.546
129.477
129.456
129.476
129.535
129.631
129.761
129.943
130.159
130.422
130.74
131.126
131.589
132.147
132.797
133.578
134.502
135.808