/*--------------------------------*- C++ -*----------------------------------*\
| =========                 |                                                 |
| \\      /  F ield         | OpenFOAM: The Open Source CFD Toolbox           |
|  \\    /   O peration     | Version:  v1906                                 |
|   \\  /    A nd           | Web:      www.OpenFOAM.com                      |
|    \\/     M anipulation  |                                                 |
\*---------------------------------------------------------------------------*/
FoamFile
{
    version     2.0;
    format      ascii;
    class       volScalarField;
    location    "0.1";
    object      p;
}
// * * * * * * * * * * * * * * * * * * * * * * * * * * * * * * * * * * * * * //

dimensions      [1 -1 -2 0 0 0 0];


internalField   nonuniform List<scalar> 
80000
(
71172.3
70664.5
70721.6
70503.2
70460.6
70314.1
70249.2
70141.4
70071.4
69985.5
69917.7
69845.5
69782.5
69719.8
69662.4
69606.9
69555.1
69505.5
69458.6
69413.9
69371.4
69330.9
69292.2
69255.4
69220.4
69187.4
69156.6
69128.1
69102.5
69080.1
69061.5
69047.2
69038.1
69034.8
69038.4
69049.9
69070.5
69101.4
69144.1
69200.2
69271.4
69359.3
69466
69593.5
69743.6
69918.8
70120.7
70352.3
70614.3
70911.2
71241
71612.3
72015
72470.6
72945.6
73499.6
74030.5
74712.4
75241.4
76128.2
76480.1
77788.2
77445.9
79778.2
77255.3
71172.3
70664.3
70721
70502.6
70460
70313.5
70248.6
70140.8
70070.8
69984.9
69917
69844.8
69781.9
69719.1
69661.8
69606.3
69554.4
69504.9
69458
69413.3
69370.8
69330.2
69291.6
69254.7
69219.8
69186.8
69155.9
69127.5
69101.9
69079.5
69060.9
69046.6
69037.4
69034.2
69037.8
69049.3
69069.8
69100.8
69143.5
69199.6
69270.7
69358.7
69465.4
69592.9
69743
69918.2
70120.1
70351.8
70613.8
70910.8
71240.6
71611.9
72014.7
72470.4
72945.4
73499.5
74030.5
74712.5
75241.5
76128.4
76480.4
77788.9
77446.5
79779.5
77249.6
71171.2
70664.1
70720.5
70502
70459.3
70312.8
70248
70140.1
70070.1
69984.3
69916.4
69844.2
69781.2
69718.5
69661.1
69605.6
69553.8
69504.2
69457.3
69412.6
69370.2
69329.6
69290.9
69254.1
69219.1
69186.1
69155.3
69126.9
69101.2
69078.8
69060.2
69045.9
69036.8
69033.5
69037.1
69048.6
69069.2
69100.1
69142.9
69199
69270.1
69358.1
69464.8
69592.3
69742.5
69917.7
70119.6
70351.2
70613.3
70910.3
71240.2
71611.6
72014.4
72470.2
72945.3
73499.4
74030.5
74712.6
75241.7
76128.9
76481
77790
77447.9
79781
77251.6
71170
70663.8
70719.9
70501.4
70458.7
70312.2
70247.3
70139.5
70069.5
69983.6
69915.7
69843.5
69780.5
69717.8
69660.4
69605
69553.1
69503.5
69456.7
69412
69369.5
69328.9
69290.2
69253.4
69218.4
69185.4
69154.6
69126.2
69100.5
69078.1
69059.5
69045.2
69036.1
69032.8
69036.4
69047.9
69068.5
69099.4
69142.2
69198.3
69269.5
69357.5
69464.2
69591.7
69741.8
69917.1
70119
70350.7
70612.8
70909.8
71239.7
71611.2
72014.1
72469.9
72945.1
73499.3
74030.5
74712.7
75241.9
76129.3
76481.5
77790.7
77449.3
79782.1
77252.2
71168.8
70663.5
70719.4
70500.8
70458
70311.5
70246.6
70138.8
70068.8
69982.9
69915
69842.8
69779.8
69717.1
69659.7
69604.2
69552.4
69502.8
69456
69411.2
69368.8
69328.2
69289.5
69252.7
69217.7
69184.7
69153.9
69125.5
69099.8
69077.4
69058.8
69044.5
69035.4
69032.1
69035.7
69047.2
69067.8
69098.7
69141.5
69197.6
69268.8
69356.8
69463.5
69591
69741.2
69916.5
70118.4
70350.1
70612.3
70909.3
71239.3
71610.7
72013.7
72469.5
72944.8
73499.1
74030.4
74712.6
75241.9
76129.2
76481.6
77790.5
77450.1
79779.4
77254.2
71167.5
70663.2
70718.9
70500.1
70457.3
70310.8
70245.9
70138.1
70068
69982.2
69914.3
69842.1
69779.1
69716.3
69659
69603.5
69551.7
69502.1
69455.2
69410.5
69368
69327.4
69288.8
69251.9
69217
69184
69153.1
69124.7
69099.1
69076.7
69058.1
69043.8
69034.6
69031.4
69035
69046.5
69067.1
69098
69140.8
69196.9
69268.1
69356.1
69462.8
69590.3
69740.5
69915.8
70117.8
70349.5
70611.7
70908.8
71238.7
71610.2
72013.2
72469.1
72944.4
73498.7
74030
74712.3
75241.6
76128.7
76481.3
77789.2
77450.1
79773.3
77256.3
71166.1
70662.8
70718.3
70499.5
70456.6
70310.1
70245.2
70137.3
70067.3
69981.4
69913.5
69841.3
69778.3
69715.6
69658.2
69602.7
69550.9
69501.3
69454.4
69409.7
69367.2
69326.7
69288
69251.2
69216.2
69183.2
69152.4
69124
69098.3
69075.9
69057.3
69043
69033.9
69030.6
69034.2
69045.7
69066.3
69097.2
69140
69196.1
69267.3
69355.3
69462.1
69589.6
69739.8
69915.1
70117.1
70348.8
70611
70908.1
71238.1
71609.6
72012.7
72468.5
72943.9
73498.2
74029.5
74711.6
75241
76127.7
76480.4
77786.7
77449.3
79764
77258.7
71164.7
70662.4
70717.7
70498.8
70455.9
70309.3
70244.4
70136.5
70066.5
69980.6
69912.7
69840.5
69777.5
69714.8
69657.4
69601.9
69550.1
69500.5
69453.6
69408.9
69366.4
69325.9
69287.2
69250.4
69215.4
69182.4
69151.6
69123.2
69097.5
69075.1
69056.5
69042.2
69033.1
69029.8
69033.4
69044.9
69065.5
69096.4
69139.2
69195.3
69266.5
69354.6
69461.3
69588.8
69739.1
69914.3
70116.4
70348.1
70610.3
70907.4
71237.4
71608.9
72012
72467.8
72943.2
73497.4
74028.7
74710.7
75240
76126.1
76478.9
77783
77447.7
79751.5
77261.3
71163.3
70662
70717
70498.1
70455.1
70308.5
70243.6
70135.7
70065.7
69979.8
69911.9
69839.7
69776.7
69714
69656.6
69601.1
69549.3
69499.7
69452.8
69408.1
69365.6
69325
69286.4
69249.5
69214.6
69181.6
69150.7
69122.3
69096.7
69074.3
69055.7
69041.4
69032.2
69029
69032.6
69044.1
69064.7
69095.6
69138.4
69194.5
69265.7
69353.7
69460.5
69588
69738.2
69913.5
70115.6
70347.3
70609.5
70906.6
71236.6
71608.1
72011.1
72467
72942.3
73496.4
74027.7
74709.4
75238.6
76123.8
76476.7
77778
77445.1
79735.8
77264
71161.8
70661.5
70716.2
70497.3
70454.4
70307.7
70242.8
70134.9
70064.9
69979
69911.1
69838.8
69775.8
69713.1
69655.7
69600.3
69548.4
69498.8
69452
69407.2
69364.8
69324.2
69285.5
69248.7
69213.7
69180.7
69149.9
69121.5
69095.8
69073.4
69054.8
69040.5
69031.4
69028.1
69031.7
69043.2
69063.8
69094.7
69137.5
69193.6
69264.8
69352.9
69459.6
69587.2
69737.4
69912.7
70114.7
70346.4
70608.6
70905.7
71235.7
71607.2
72010.2
72466
72941.2
73495.2
74026.4
74707.7
75236.8
76120.8
76473.8
77771.5
77441.5
79716.8
77266.8
71160.2
70661
70715.4
70496.6
70453.6
70306.9
70241.9
70134
70064
69978.1
69910.2
69838
69775
69712.2
69654.9
69599.4
69547.5
69497.9
69451.1
69406.4
69363.9
69323.3
69284.6
69247.8
69212.8
69179.8
69149
69120.6
69094.9
69072.5
69053.9
69039.6
69030.5
69027.2
69030.8
69042.3
69062.9
69093.8
69136.6
69192.7
69263.9
69351.9
69458.7
69586.2
69736.4
69911.7
70113.7
70345.5
70607.7
70904.7
71234.7
71606.1
72009.1
72464.7
72939.9
73493.7
74024.7
74705.5
75234.4
76117
76470.2
77763.5
77436.9
79694.8
77269.6
71158.5
70660.4
70714.6
70495.7
70452.7
70306
70241.1
70133.1
70063.1
69977.2
69909.3
69837
69774
69711.3
69653.9
69598.4
69546.6
69497
69450.1
69405.4
69362.9
69322.4
69283.7
69246.9
69211.9
69178.9
69148.1
69119.6
69094
69071.6
69053
69038.7
69029.5
69026.3
69029.9
69041.4
69061.9
69092.9
69135.6
69191.8
69262.9
69351
69457.7
69585.2
69735.4
69910.7
70112.7
70344.4
70606.6
70903.6
71233.5
71604.9
72007.8
72463.3
72938.4
73491.9
74022.8
74702.9
75231.5
76112.4
76465.7
77753.9
77431
79669.6
77272.1
71156.8
70659.8
70713.7
70494.8
70451.8
70305.1
70240.1
70132.2
70062.2
69976.2
69908.3
69836.1
69773.1
69710.3
69653
69597.5
69545.6
69496
69449.2
69404.4
69362
69321.4
69282.7
69245.9
69210.9
69177.9
69147.1
69118.7
69093
69070.6
69052
69037.7
69028.5
69025.3
69028.9
69040.4
69060.9
69091.9
69134.6
69190.8
69261.9
69350
69456.7
69584.2
69734.4
69909.6
70111.6
70343.3
70605.4
70902.4
71232.2
71603.5
72006.3
72461.7
72936.6
73489.8
74020.3
74699.7
75228
76106.9
76460.4
77742.7
77423.9
79641.5
77274.1
71155
70659.2
70712.7
70493.9
70450.9
70304.2
70239.2
70131.3
70061.2
69975.2
69907.3
69835.1
69772.1
69709.3
69652
69596.5
69544.6
69495
69448.1
69403.4
69360.9
69320.4
69281.7
69244.9
69209.9
69176.9
69146.1
69117.7
69092
69069.6
69051
69036.7
69027.5
69024.3
69027.8
69039.3
69059.9
69090.8
69133.6
69189.7
69260.9
69348.9
69455.6
69583.1
69733.3
69908.5
70110.4
70342.1
70604.1
70901
71230.8
71602
72004.6
72459.8
72934.5
73487.3
74017.5
74695.9
75223.9
76100.5
76454.1
77729.8
77415.4
79610.1
77275.6
71153.1
70658.6
70711.7
70492.9
70449.9
70303.2
70238.2
70130.2
70060.2
69974.2
69906.3
69834.1
69771.1
69708.3
69650.9
69595.4
69543.6
69494
69447.1
69402.4
69359.9
69319.3
69280.7
69243.8
69208.9
69175.9
69145
69116.6
69091
69068.6
69049.9
69035.6
69026.5
69023.2
69026.8
69038.3
69058.8
69089.7
69132.5
69188.6
69259.7
69347.7
69454.4
69581.9
69732
69907.2
70109.1
70340.7
70602.7
70899.5
71229.2
71600.2
72002.7
72457.7
72932.1
73484.4
74014.2
74691.5
75219.1
76093.1
76446.9
77715.1
77405.5
79575.6
77276.2
71151.1
70657.9
70710.6
70491.8
70448.9
70302.2
70237.2
70129.2
70059.1
69973.2
69905.2
69833
69770
69707.2
69649.8
69594.3
69542.5
69492.9
69446
69401.3
69358.8
69318.2
69279.6
69242.7
69207.8
69174.8
69143.9
69115.5
69089.9
69067.5
69048.8
69034.5
69025.4
69022.1
69025.7
69037.1
69057.7
69088.6
69131.3
69187.4
69258.6
69346.5
69453.2
69580.7
69730.8
69905.9
70107.8
70339.3
70601.2
70897.9
71227.4
71598.3
72000.6
72455.2
72929.3
73481
74010.4
74686.5
75213.6
76084.7
76438.6
77698.4
77394.1
79537.6
77275.7
71149
70657.3
70709.5
70490.7
70447.8
70301.1
70236.1
70128.1
70058
69972.1
69904.1
69831.9
69768.9
69706.1
69648.7
69593.2
69541.3
69491.7
69444.9
69400.2
69357.7
69317.1
69278.4
69241.6
69206.6
69173.6
69142.8
69114.4
69088.7
69066.3
69047.7
69033.4
69024.2
69020.9
69024.5
69036
69056.5
69087.4
69130.1
69186.2
69257.3
69345.3
69451.9
69579.3
69729.4
69904.5
70106.3
70337.7
70599.5
70896.1
71225.4
71596.1
71998.1
72452.4
72926.1
73477.2
74006.1
74680.8
75207.4
76075.1
76429.1
77679.7
77381
79496.3
77274.1
71146.9
70656.5
70708.3
70489.6
70446.7
70300
70235
70127
70056.9
69970.9
69903
69830.7
69767.7
69704.9
69647.6
69592
69540.2
69490.6
69443.7
69399
69356.5
69315.9
69277.3
69240.4
69205.5
69172.5
69141.6
69113.2
69087.6
69065.1
69046.5
69032.2
69023
69019.7
69023.3
69034.7
69055.3
69086.2
69128.9
69184.9
69256
69343.9
69450.5
69577.9
69727.9
69902.9
70104.6
70336
70597.6
70894.1
71223.3
71593.7
71995.4
72449.2
72922.5
73472.9
74001.2
74674.4
75200.3
76064.2
76418.4
77658.8
77366.2
79451.3
77270.9
71144.7
70655.8
70707.1
70488.3
70445.5
70298.8
70233.8
70125.8
70055.7
69969.7
69901.8
69829.5
69766.5
69703.7
69646.3
69590.8
69539
69489.3
69442.5
69397.8
69355.3
69314.7
69276
69239.2
69204.2
69171.2
69140.4
69112
69086.3
69063.9
69045.2
69031
69021.8
69018.5
69022
69033.5
69054
69084.9
69127.5
69183.6
69254.6
69342.5
69449.1
69576.4
69726.3
69901.3
70102.9
70334.1
70595.6
70891.9
71220.9
71590.9
71992.3
72445.7
72918.5
73468
73995.7
74667.1
75192.3
76052.1
76406.4
77635.7
77349.7
79402.5
77266.2
71142.4
70655
70705.9
70487.1
70444.3
70297.6
70232.6
70124.6
70054.5
69968.5
69900.5
69828.3
69765.2
69702.5
69645.1
69589.6
69537.7
69488.1
69441.2
69396.5
69354
69313.4
69274.8
69237.9
69203
69170
69139.1
69110.7
69085
69062.6
69044
69029.7
69020.4
69017.1
69020.7
69032.1
69052.6
69083.5
69126.1
69182.1
69253.2
69341
69447.5
69574.8
69724.6
69899.5
70101
70332.1
70593.4
70889.5
71218.2
71587.9
71989
72441.8
72914
73462.5
73989.5
74659
75183.3
76038.5
76392.9
77610.1
77331.2
79349.9
77259.6
71140
70654.1
70704.6
70485.7
70442.9
70296.3
70231.3
70123.3
70053.2
69967.2
69899.3
69827
69763.9
69701.2
69643.8
69588.3
69536.4
69486.8
69439.9
69395.2
69352.7
69312.1
69273.4
69236.6
69201.6
69168.6
69137.8
69109.4
69083.7
69061.3
69042.6
69028.3
69019.1
69015.8
69019.3
69030.7
69051.2
69082
69124.7
69180.6
69251.6
69339.4
69445.9
69573.1
69722.8
69897.6
70098.9
70329.9
70591
70886.8
71215.2
71584.6
71985.2
72437.4
72909
73456.5
73982.5
74649.9
75173.3
76023.4
76378
77581.9
77310.7
79293.3
77250.9
71137.6
70653.3
70703.2
70484.4
70441.5
70295
70229.9
70122
70051.9
69965.9
69897.9
69825.6
69762.6
69699.8
69642.4
69586.9
69535
69485.4
69438.5
69393.8
69351.3
69310.7
69272.1
69235.2
69200.3
69167.2
69136.4
69108
69082.3
69059.9
69041.2
69026.9
69017.7
69014.3
69017.9
69029.3
69049.7
69080.5
69123.1
69179.1
69250
69337.8
69444.1
69571.2
69720.9
69895.5
70096.7
70327.5
70588.4
70883.9
71212
71580.9
71981
72432.5
72903.5
73449.7
73974.8
74639.7
75162.1
76006.7
76361.4
77551.1
77288
79232.6
77239.9
71135
70652.3
70701.8
70482.9
70440.1
70293.5
70228.5
70120.6
70050.5
69964.5
69896.5
69824.2
69761.2
69698.4
69641
69585.5
69533.6
69484
69437.1
69392.4
69349.9
69309.3
69270.6
69233.8
69198.8
69165.8
69135
69106.5
69080.9
69058.4
69039.7
69025.4
69016.2
69012.9
69016.4
69027.7
69048.2
69079
69121.5
69177.4
69248.3
69336
69442.3
69569.3
69718.8
69893.3
70094.4
70324.9
70585.5
70880.7
71208.4
71576.8
71976.4
72427.1
72897.3
73442.1
73966.2
74628.5
75149.7
75988.3
76343.1
77517.5
77263.1
79167.6
77226.3
71132.3
70651.4
70700.3
70481.5
70438.6
70292
70227.1
70119.1
70049
69963
69895
69822.8
69759.7
69696.9
69639.5
69584
69532.1
69482.5
69435.6
69390.9
69348.4
69307.8
69269.1
69232.3
69197.3
69164.3
69133.5
69105
69079.4
69056.9
69038.2
69023.9
69014.6
69011.3
69014.8
69026.1
69046.6
69077.3
69119.8
69175.7
69246.5
69334.1
69440.3
69567.2
69716.6
69890.9
70091.8
70322
70582.4
70877.2
71204.5
71572.4
71971.3
72421.2
72890.4
73433.8
73956.7
74616
75135.9
75968
76323
77481
77235.7
79098.2
77209.9
71129.6
70650.4
70698.8
70479.9
70437.1
70290.5
70225.5
70117.6
70047.5
69961.5
69893.5
69821.2
69758.2
69695.4
69638
69582.5
69530.6
69481
69434.1
69389.4
69346.9
69306.3
69267.6
69230.7
69195.8
69162.7
69131.9
69103.4
69077.8
69055.3
69036.6
69022.3
69013
69009.7
69013.1
69024.5
69044.9
69075.6
69118.1
69173.8
69244.6
69332.1
69438.2
69565
69714.3
69888.4
70089
70318.9
70579
70873.4
71200.2
71567.5
71965.7
72414.6
72882.9
73424.6
73946.2
74602.3
75120.8
75945.8
76300.8
77441.3
77205.8
79024.3
77190.4
71126.7
70649.4
70697.2
70478.3
70435.5
70288.9
70223.9
70116
70045.9
69959.9
69891.9
69819.7
69756.6
69693.8
69636.4
69580.9
69529
69479.4
69432.5
69387.8
69345.2
69304.7
69266
69229.1
69194.1
69161.1
69130.3
69101.8
69076.1
69053.7
69035
69020.6
69011.4
69008
69011.4
69022.7
69043.1
69073.8
69116.2
69171.9
69242.6
69330
69436
69562.6
69711.7
69885.6
70086
70315.6
70575.3
70869.2
71195.5
71562.1
71959.5
72407.3
72874.5
73414.4
73934.5
74587.1
75104.1
75921.4
76276.5
77398.4
77173.2
78945.7
77167.5
71123.8
70648.3
70695.5
70476.6
70433.8
70287.2
70222.2
70114.3
70044.2
69958.2
69890.3
69818
69754.9
69692.1
69634.7
69579.2
69527.3
69477.7
69430.8
69386.1
69343.6
69303
69264.3
69227.5
69192.5
69159.4
69128.6
69100.1
69074.4
69052
69033.3
69018.9
69009.6
69006.2
69009.6
69020.9
69041.2
69071.8
69114.2
69169.9
69240.4
69327.8
69433.6
69560.1
69709
69882.6
70082.7
70312
70571.3
70864.7
71190.4
71556.2
71952.8
72399.4
72865.4
73403.2
73921.7
74570.5
75085.7
75894.8
76250
77352.2
77137.8
78862.5
77140.9
71120.7
70647.1
70693.8
70474.9
70432
70285.4
70220.5
70112.6
70042.5
69956.5
69888.6
69816.3
69753.2
69690.4
69633
69577.5
69525.6
69476
69429.1
69384.4
69341.8
69301.3
69262.6
69225.7
69190.7
69157.7
69126.8
69098.3
69072.7
69050.2
69031.5
69017.1
69007.8
69004.4
69007.7
69019
69039.3
69069.8
69112.1
69167.7
69238.2
69325.4
69431.1
69557.4
69706
69879.5
70079.2
70308.1
70566.9
70859.8
71184.8
71549.7
71945.3
72390.6
72855.3
73390.9
73907.6
74552.3
75065.6
75865.9
76221
77302.4
77099.2
78774.4
77110.4
71117.5
70645.9
70692
70473.1
70430.2
70283.6
70218.6
70110.7
70040.7
69954.7
69886.8
69814.5
69751.4
69688.6
69631.2
69575.7
69523.8
69474.2
69427.3
69382.6
69340
69299.4
69260.8
69223.9
69188.9
69155.8
69125
69096.5
69070.8
69048.3
69029.6
69015.2
69005.9
69002.4
69005.8
69017
69037.2
69067.7
69110
69165.4
69235.8
69322.9
69428.4
69554.5
69702.9
69876
70075.4
70303.9
70562.2
70854.4
71178.6
71542.6
71937.2
72381
72844.2
73377.4
73892.2
74532.3
75043.5
75834.4
76189.5
77248.9
77057.4
78681.4
77075.6
71114.2
70644.7
70690.1
70471.2
70428.3
70281.7
70216.7
70108.8
70038.8
69952.8
69884.9
69812.6
69749.6
69686.8
69629.4
69573.8
69521.9
69472.3
69425.4
69380.7
69338.2
69297.6
69258.9
69222
69187
69153.9
69123.1
69094.6
69068.9
69046.4
69027.6
69013.2
69003.9
69000.4
69003.7
69014.9
69035.1
69065.5
69107.7
69163
69233.3
69320.2
69425.6
69551.4
69699.6
69872.3
70071.3
70299.3
70557.1
70848.6
71172
71534.9
71928.3
72370.5
72832
73362.6
73875.2
74510.5
75019.4
75800.2
76155.1
77191.5
77012.1
78583.3
77036.2
71110.8
70643.4
70688.2
70469.2
70426.3
70279.7
70214.8
70106.9
70036.8
69950.9
69882.9
69810.7
69747.6
69684.8
69627.4
69571.9
69520
69470.3
69423.5
69378.7
69336.2
69295.6
69256.9
69220
69185
69152
69121.1
69092.6
69066.9
69044.4
69025.6
69011.2
69001.8
68998.3
69001.6
69012.7
69032.8
69063.2
69105.3
69160.5
69230.6
69317.4
69422.5
69548.1
69696
69868.4
70066.9
70294.4
70551.5
70842.2
71164.7
71526.5
71918.6
72359
72818.7
73346.3
73856.6
74486.7
74993.1
75763.1
76117.8
77130.1
76963.1
78480.3
76991.8
71107.2
70642.1
70686.1
70467.1
70424.3
70277.7
70212.7
70104.8
70034.7
69948.8
69880.9
69808.6
69745.6
69682.8
69625.4
69569.8
69518
69468.3
69421.4
69376.7
69334.2
69293.6
69254.9
69218
69183
69149.9
69119
69090.5
69064.8
69042.3
69023.5
69009
68999.6
68996.1
68999.3
69010.4
69030.5
69060.8
69102.7
69157.9
69227.8
69314.4
69419.3
69544.6
69692.1
69864.1
70062.2
70289.1
70545.4
70835.3
71156.8
71517.3
71907.9
72346.4
72804.1
73328.6
73836.3
74460.7
74964.4
75723
76077.3
77064.5
76910.2
78372
76942.2
71103.6
70640.6
70684
70465
70422.1
70275.5
70210.6
70102.7
70032.6
69946.7
69878.7
69806.5
69743.4
69680.7
69623.3
69567.7
69515.8
69466.2
69419.3
69374.6
69332.1
69291.4
69252.7
69215.9
69180.8
69147.8
69116.8
69088.3
69062.6
69040.1
69021.3
69006.8
68997.4
68993.8
68997
69008
69028
69058.2
69100
69155
69224.8
69311.2
69415.8
69540.9
69688
69859.6
70057.1
70283.3
70538.9
70827.8
71148.1
71507.2
71896.3
72332.6
72788.2
73309.2
73814.1
74432.4
74933
75679.6
76033.4
76994.5
76853.1
78258.5
76887
71099.7
70639.2
70681.8
70462.8
70419.9
70273.3
70208.3
70100.4
70030.4
69944.4
69876.5
69804.3
69741.2
69678.4
69621
69565.5
69513.6
69464
69417.1
69372.4
69329.8
69289.2
69250.5
69213.6
69178.6
69145.5
69114.6
69086.1
69060.3
69037.8
69019
69004.5
68995
68991.4
68994.6
69005.5
69025.4
69055.5
69097.2
69152.1
69221.7
69307.8
69412.2
69536.8
69683.6
69854.6
70051.5
70277
70531.8
70819.6
71138.7
71496.3
71883.6
72317.6
72770.7
73288.1
73789.8
74401.7
74898.9
75632.8
75985.9
76920
76791.4
78139.8
76825.9
71095.8
70637.6
70679.5
70460.5
70417.6
70271
70206
70098.1
70028
69942.1
69874.2
69802
69738.9
69676.2
69618.7
69563.2
69511.3
69461.7
69414.8
69370.1
69327.6
69286.9
69248.2
69211.3
69176.3
69143.2
69112.3
69083.7
69058
69035.4
69016.5
69002
68992.5
68988.9
68992
69002.9
69022.7
69052.7
69094.2
69148.9
69218.3
69304.2
69408.3
69532.5
69678.8
69849.3
70045.6
70270.3
70524.1
70810.7
71128.5
71484.3
71869.8
72301.2
72751.7
73265
73763.3
74368.2
74861.8
75582.3
75934.4
76840.6
76725
78015.6
76758.6
71091.7
70636
70677.2
70458.1
70415.2
70268.6
70203.6
70095.7
70025.6
69939.7
69871.8
69799.5
69736.5
69673.7
69616.4
69560.8
69508.9
69459.3
69412.4
69367.7
69325.2
69284.5
69245.8
69208.9
69173.9
69140.8
69109.8
69081.3
69055.5
69032.9
69014
68999.5
68990
68986.3
68989.3
69000.1
69019.8
69049.7
69091.1
69145.6
69214.8
69300.3
69404.1
69528
69673.7
69843.6
70039.2
70263
70515.7
70801.1
71117.4
71471.3
71854.7
72283.3
72730.9
73239.9
73734.4
74331.9
74821.5
75527.9
75878.7
76756.2
76653.5
77886
76684.7
71087.5
70634.3
70674.7
70455.6
70412.7
70266.1
70201.1
70093.2
70023.1
69937.2
69869.3
69797
69734
69671.2
69613.9
69558.3
69506.5
69456.8
69409.9
69365.2
69322.7
69282.1
69243.3
69206.4
69171.4
69138.3
69107.3
69078.8
69053
69030.3
69011.4
68996.9
68987.3
68983.5
68986.5
68997.2
69016.8
69046.6
69087.8
69142.1
69211
69296.3
69399.6
69523.1
69668.3
69837.5
70032.3
70255.1
70506.7
70790.7
71105.3
71457.2
71838.2
72263.8
72708.3
73212.5
73702.9
74292.5
74777.6
75469.3
75818.5
76666.6
76576.5
77750.7
76603.9
71083.1
70632.5
70672.1
70453.1
70410.1
70263.5
70198.5
70090.6
70020.5
69934.6
69866.7
69794.4
69731.4
69668.6
69611.3
69555.7
69503.9
69454.2
69407.3
69362.6
69320.1
69279.4
69240.7
69203.8
69168.8
69135.7
69104.7
69076.1
69050.3
69027.7
69008.7
68994.1
68984.5
68980.7
68983.6
68994.2
69013.7
69043.3
69084.4
69138.4
69207.1
69292
69394.9
69517.9
69662.5
69831
70024.8
70246.6
70496.9
70779.4
71092.2
71441.9
71820.3
72242.6
72683.6
73182.7
73668.7
74249.7
74730
75406.3
75753.5
76571.4
76493.7
77609.7
76515.6
71078.5
70630.7
70669.5
70450.4
70407.4
70260.8
70195.8
70087.9
70017.8
69931.9
69863.9
69791.7
69728.7
69665.9
69608.5
69553
69501.2
69451.5
69404.6
69359.9
69317.4
69276.7
69238
69201.1
69166
69132.9
69101.9
69073.4
69047.5
69024.9
69005.9
68991.3
68981.6
68977.7
68980.5
68991.1
69010.4
69039.9
69080.7
69134.5
69202.9
69287.4
69389.9
69512.3
69656.3
69823.9
70016.8
70237.4
70486.4
70767.1
71078
71425.2
71800.9
72219.6
72656.8
73150.3
73631.4
74203.4
74678.3
75338.4
75683.2
76470.4
76404.7
77462.7
76419.6
71073.8
70628.8
70666.7
70447.6
70404.6
70258
70193
70085.1
70015
69929
69861.1
69788.9
69725.8
69663.1
69605.7
69550.2
69498.3
69448.7
69401.8
69357.1
69314.5
69273.9
69235.2
69198.3
69163.2
69130.1
69099.1
69070.5
69044.6
69022
69003
68988.3
68978.6
68974.6
68977.4
68987.8
69007
69036.3
69076.9
69130.5
69198.5
69282.6
69384.6
69506.4
69649.6
69816.4
70008.3
70227.6
70475.1
70754
71062.7
71407.2
71779.9
72194.6
72627.6
73115.2
73590.9
74153.2
74622.2
75265.5
75607.4
76363.2
76309
77309.5
76315.4
71069
70626.7
70663.8
70444.7
70401.7
70255.1
70190
70082.1
70012
69926.1
69858.2
69785.9
69722.9
69660.1
69602.8
69547.3
69495.4
69445.8
69398.9
69354.2
69311.6
69271
69232.2
69195.3
69160.3
69127.1
69096.1
69067.5
69041.6
69019
68999.9
68985.2
68975.4
68971.4
68974.1
68984.3
69003.4
69032.5
69072.9
69126.2
69193.8
69277.5
69379
69500.1
69642.5
69808.4
69999.1
70217
70462.8
70739.7
71046.1
71387.7
71757.1
72167.5
72596
73077.1
73546.9
74099
74561.4
75187.2
75525.5
76249.6
76206.3
77149.8
76202.7
71063.9
70624.6
70660.8
70441.6
70398.6
70252
70187
70079.1
70009
69923
69855.1
69782.9
69719.8
69657.1
69599.7
69544.2
69492.3
69442.7
69395.8
69351.1
69308.6
69268
69229.2
69192.2
69157.2
69124
69093
69064.4
69038.5
69015.8
68996.8
68982
68972.1
68968.1
68970.6
68980.8
68999.6
69028.5
69068.7
69121.6
69188.8
69272
69372.9
69493.3
69634.8
69799.7
69989.1
70205.5
70449.5
70724.3
71028.1
71366.6
71732.3
72138.1
72561.7
73035.9
73499.2
74040.3
74495.6
75103
75437.2
76129
76095.9
76983.1
76081.3
71058.7
70622.4
70657.6
70438.5
70395.5
70248.9
70183.8
70075.9
70005.8
69919.9
69851.9
69779.7
69716.7
69653.9
69596.5
69541
69489.1
69439.5
69392.6
69347.9
69305.3
69264.7
69226
69189.1
69154
69120.8
69089.8
69061.2
69035.3
69012.5
68993.5
68978.6
68968.7
68964.6
68967
68977
68995.7
69024.3
69064.2
69116.7
69183.5
69266.2
69366.4
69486
69626.6
69790.2
69978.3
70193.1
70435.1
70707.4
71008.4
71343.4
71705.3
72106.2
72524.4
72991
73447.5
73977
74424.4
75012.7
75341.9
76001
75977.5
76809
75950.9
71053.3
70620.1
70654.4
70435.2
70392.2
70245.6
70180.5
70072.6
70002.5
69916.6
69848.6
69776.4
69713.3
69650.6
69593.2
69537.7
69485.8
69436.2
69389.3
69344.6
69302
69261.4
69222.6
69185.7
69150.7
69117.6
69086.5
69057.9
69031.9
69009.1
68990
68975.1
68965.1
68960.9
68963.2
68973
68991.5
69019.9
69059.5
69111.6
69177.9
69260
69359.5
69478.2
69617.7
69780.1
69966.6
70179.5
70419.3
70689
70987
71318.2
71675.9
72071.3
72483.6
72942.3
73391.3
73908.4
74347.3
74915.9
75239.3
75865.3
75850.3
76627
75811.5
71047.7
70617.7
70651
70431.8
70388.8
70242.1
70177.1
70069.2
69999.1
69913.1
69845.2
69772.9
69709.9
69647.1
69589.8
69534.2
69482.4
69432.7
69385.8
69341.1
69298.6
69257.9
69219.2
69182.3
69147.2
69114
69083
69054.4
69028.4
69005.6
68986.5
68971.5
68961.5
68957.1
68959.2
68968.9
68987.2
69015.3
69054.5
69106.2
69172
69253.4
69352.1
69469.8
69608.2
69769.2
69954
70164.9
70402.4
70669.2
70963.7
71290.9
71643.8
72033.2
72439.3
72889.4
73330.1
73834.3
74264
74812
75128.9
75721.4
75714.1
76436.3
75663.2
71042
70615.1
70647.4
70428.3
70385.2
70238.6
70173.5
70065.6
69995.5
69909.6
69841.6
69769.4
69706.3
69643.6
69586.2
69530.7
69478.8
69429.2
69382.3
69337.5
69295
69254.3
69215.6
69178.6
69143.6
69110.4
69079.4
69050.7
69024.8
69001.9
68982.7
68967.7
68957.6
68953.1
68955.1
68964.6
68982.7
69010.4
69049.3
69100.5
69165.7
69246.4
69344.2
69460.9
69598
69757.5
69940.5
70149.3
70384.1
70647.8
70938.7
71261.4
71609.2
71992.2
72391.2
72832
73263.7
73754.2
74173.8
74700.6
75010.2
75568.8
75568.2
76236.5
75506
71036
70612.4
70643.8
70424.6
70381.5
70234.9
70169.8
70061.9
69991.8
69905.9
69837.9
69765.6
69702.6
69639.8
69582.5
69526.9
69475.1
69425.4
69378.5
69333.8
69291.2
69250.6
69211.8
69174.9
69139.8
69106.6
69075.6
69046.9
69021
68998.1
68978.9
68963.8
68953.6
68949
68950.9
68960.2
68977.9
69005.4
69043.8
69094.5
69159.1
69239
69335.9
69451.5
69587.3
69745.1
69926.2
70132.5
70364.6
70624.8
70911.7
71229.5
71571.7
71947.8
72339.3
72770.2
73192.2
73668
74076.4
74581.5
74882.6
75407.3
75412.6
76026.9
75339.7
71029.8
70609.7
70639.9
70420.8
70377.7
70231.1
70166
70058.1
69987.9
69902
69834
69761.8
69698.7
69636
69578.6
69523.1
69471.2
69421.5
69374.6
69329.9
69287.3
69246.7
69207.9
69171
69135.9
69102.7
69071.7
69043
69017
68994.1
68974.8
68959.7
68949.4
68944.7
68946.4
68955.5
68973
69000.1
69038.1
69088.3
69152.2
69231.3
69327.2
69441.6
69576
69732.1
69911.1
70115
70344
70600.7
70883.3
71195.8
71532
71900.5
72283.6
72703.6
73114.9
73575.3
73971.7
74454.2
74745.8
75236.9
75246.8
75807.5
75164.1
71023.5
70606.7
70636
70416.9
70373.7
70227.1
70162
70054
69983.9
69898
69830
69757.8
69694.7
69632
69574.6
69519
69467.2
69417.5
69370.6
69325.8
69283.3
69242.6
69203.9
69166.9
69131.8
69098.7
69067.6
69038.9
69012.9
68990
68970.7
68955.5
68945.1
68940.2
68941.7
68950.6
68967.8
68994.5
69032
69081.7
69144.9
69223.2
69318
69431.2
69564
69718.3
69895.1
70096.3
70322.2
70575
70853.1
71160.2
71490
71850.5
72224.8
72633.1
73032.7
73476.4
73859.4
74318.5
74599.5
75056.8
75070.3
75578.9
74979.3
71016.9
70603.7
70631.8
70412.7
70369.5
70222.9
70157.8
70049.9
69979.7
69893.8
69825.8
69753.6
69690.5
69627.8
69570.4
69514.9
69463
69413.3
69366.4
69321.6
69279.1
69238.4
69199.7
69162.7
69127.6
69094.4
69063.4
69034.7
69008.6
68985.7
68966.3
68951
68940.5
68935.5
68936.9
68945.5
68962.4
68988.7
69025.7
69074.8
69137.2
69214.6
69308.3
69420.1
69551.3
69703.6
69878.1
70076.5
70299
70547.8
70821.2
71122.4
71445.5
71797.7
72162.8
72559
72946.2
73372.5
73740.6
74175
74443.5
74866.7
74882.7
75340.2
74784.9
71010.1
70600.5
70627.5
70408.4
70365.2
70218.6
70153.5
70045.5
69975.4
69889.5
69821.5
69749.2
69686.2
69623.4
69566
69510.5
69458.6
69409
69362
69317.3
69274.7
69234
69195.3
69158.3
69123.2
69090
69058.9
69030.2
69004.2
68981.2
68961.7
68946.4
68935.8
68930.6
68931.8
68940.1
68956.7
68982.6
69019.1
69067.4
69129.1
69205.5
69298
69408.4
69537.8
69688.1
69860
70055.4
70274.4
70518.9
70787.3
71082.4
71398.5
71742
72097.3
72481.2
72855.5
73263.9
73616.4
74025.3
74279.5
74667.8
74684
75090.8
74581.9
71003
70597.1
70623
70404
70360.7
70214.1
70149
70041
69970.9
69884.9
69817
69744.7
69681.7
69618.9
69561.5
69506
69454.1
69404.4
69357.5
69312.7
69270.1
69229.5
69190.7
69153.7
69118.6
69085.4
69054.4
69025.6
68999.5
68976.5
68957
68941.6
68930.8
68925.5
68926.5
68934.5
68950.7
68976.2
69012.1
69059.8
69120.5
69195.9
69287.2
69396
69523.6
69671.6
69840.9
70033.1
70248.3
70488.3
70751.3
71040
71348.6
71683
72028.2
72399.2
72760.2
73150.4
73486.8
73870.1
74108.9
74461.9
74475.7
74831.6
74371.4
70995.8
70593.6
70618.4
70399.3
70356.1
70209.4
70144.3
70036.3
69966.2
69880.2
69812.3
69740
69677
69614.2
69556.8
69501.3
69449.4
69399.7
69352.8
69308
69265.4
69224.7
69186
69149
69113.9
69080.7
69049.6
69020.8
68994.7
68971.6
68952.1
68936.5
68925.7
68920.2
68920.9
68928.6
68944.5
68969.4
69004.7
69051.7
69111.5
69185.7
69275.7
69382.8
69508.4
69654.1
69820.6
70009.4
70220.6
70455.8
70713.1
70995.1
71295.9
71620.7
71955.3
72312.9
72660.1
73031.6
73351.5
73709.3
73932.3
74250.5
74259.9
74565.1
74151.6
70988.3
70589.9
70613.5
70394.5
70351.2
70204.5
70139.4
70031.5
69961.3
69875.4
69807.4
69735.1
69672.1
69609.3
69551.9
69496.4
69444.5
69394.8
69347.9
69303.1
69260.5
69219.8
69181
69144.1
69108.9
69075.7
69044.6
69015.8
68989.7
68966.6
68946.9
68931.3
68920.3
68914.6
68915.1
68922.5
68937.9
68962.3
68997
69043.1
69102
69175
69263.5
69368.9
69492.4
69635.5
69799
69984.2
70191.2
70421.3
70672.7
70947.5
71240.1
71554.9
71878.4
72222.1
72554.9
72907.5
73210.3
73542.7
73749.4
74033.8
74038
74293
73920
70980.6
70586
70608.5
70389.5
70346.1
70199.5
70134.4
70026.4
69956.2
69870.3
69802.3
69730
69667
69604.2
69546.8
69491.3
69439.4
69389.7
69342.8
69298
69255.4
69214.7
69175.9
69138.9
69103.8
69070.6
69039.4
69010.6
68984.5
68961.3
68941.6
68925.8
68914.7
68908.8
68909
68916.1
68931
68954.9
68988.9
69034.1
69091.9
69163.7
69250.6
69354.1
69475.4
69615.8
69776.1
69957.5
70160
70384.7
70629.8
70897.1
71181
71485.4
71797.3
72126.6
72444.5
72777.8
73063.1
73370.1
73560
73811.5
73809.5
74016.7
73675.4
70972.6
70581.9
70603.2
70384.2
70340.9
70194.2
70129.1
70021.1
69951
69865
69797
69724.8
69661.7
69598.9
69541.5
69486
69434.1
69384.4
69337.5
69292.7
69250.1
69209.4
69170.6
69133.6
69098.4
69065.2
69034.1
69005.2
68979
68955.8
68936
68920.1
68908.8
68902.7
68902.6
68909.3
68923.8
68947.1
68980.3
69024.7
69081.3
69151.7
69237
69338.5
69457.4
69594.9
69751.8
69929.2
70126.9
70345.9
70584.4
70843.7
71118.6
71412.1
71711.8
72026.4
72328.8
72642.4
72909.6
73191.3
73363.9
73583.6
73574.3
73736.2
73418.1
70964.4
70577.7
70597.8
70378.8
70335.4
70188.7
70123.6
70015.6
69945.5
69859.5
69791.5
69719.3
69656.2
69593.4
69536
69480.5
69428.6
69378.9
69332
69287.2
69244.5
69203.8
69165
69128
69092.9
69059.6
69028.5
68999.6
68973.4
68950.1
68930.2
68914.2
68902.7
68896.4
68896
68902.3
68916.2
68938.9
68971.3
69014.7
69070.2
69139
69222.5
69322
69438.3
69572.8
69726.1
69899.1
70091.7
70304.8
70536.2
70787.3
71052.6
71334.8
71621.9
71921.2
72207.7
72501.2
72749.9
73006.4
73161.2
73350
73332.3
73451.9
73150.7
70955.9
70573.2
70592.1
70373.2
70329.7
70183
70117.9
70009.9
69939.8
69853.8
69785.8
69713.5
69650.5
69587.7
69530.3
69474.8
69422.8
69373.2
69326.2
69281.4
69238.8
69198.1
69159.3
69122.3
69087.1
69053.8
69022.7
68993.8
68967.5
68944.1
68924.1
68908
68896.3
68889.7
68889
68894.9
68908.3