/*--------------------------------*- C++ -*----------------------------------*\
| =========                 |                                                 |
| \\      /  F ield         | OpenFOAM: The Open Source CFD Toolbox           |
|  \\    /   O peration     | Version:  v1906                                 |
|   \\  /    A nd           | Web:      www.OpenFOAM.com                      |
|    \\/     M anipulation  |                                                 |
\*---------------------------------------------------------------------------*/
FoamFile
{
    version     2.0;
    format      ascii;
    class       volScalarField;
    location    "0.1";
    object      p_rgh;
}
// * * * * * * * * * * * * * * * * * * * * * * * * * * * * * * * * * * * * * //

dimensions      [1 -1 -2 0 0 0 0];


internalField   nonuniform List<scalar> 
80000
(
71172.7
70664.8
70721.9
70503.6
70460.9
70314.4
70249.5
70141.7
70071.7
69985.9
69918
69845.8
69782.8
69720.1
69662.7
69607.3
69555.4
69505.8
69459
69414.3
69371.8
69331.2
69292.5
69255.7
69220.7
69187.7
69156.9
69128.5
69102.8
69080.4
69061.8
69047.5
69038.4
69035.1
69038.7
69050.2
69070.8
69101.7
69144.4
69200.5
69271.7
69359.7
69466.3
69593.8
69743.9
69919.1
70121
70352.6
70614.6
70911.5
71241.3
71612.6
72015.3
72470.9
72945.9
73499.9
74030.8
74712.7
75241.7
76128.5
76480.4
77788.5
77446.2
79778.5
77255.6
71173.3
70665.2
70722
70503.6
70460.9
70314.4
70249.6
70141.7
70071.7
69985.9
69918
69845.8
69782.8
69720.1
69662.7
69607.3
69555.4
69505.8
69459
69414.3
69371.8
69331.2
69292.5
69255.7
69220.7
69187.7
69156.9
69128.5
69102.8
69080.5
69061.8
69047.6
69038.4
69035.1
69038.7
69050.2
69070.8
69101.7
69144.5
69200.6
69271.7
69359.7
69466.4
69593.9
69744
69919.2
70121.1
70352.7
70614.8
70911.7
71241.5
71612.9
72015.7
72471.3
72946.4
73500.5
74031.4
74713.4
75242.4
76129.4
76481.3
77789.8
77447.5
79780.5
77250.6
71172.8
70665.7
70722.1
70503.7
70461
70314.5
70249.6
70141.8
70071.8
69985.9
69918
69845.8
69782.8
69720.1
69662.8
69607.3
69555.4
69505.8
69459
69414.3
69371.8
69331.2
69292.6
69255.7
69220.7
69187.7
69156.9
69128.5
69102.9
69080.5
69061.8
69047.6
69038.4
69035.1
69038.7
69050.2
69070.8
69101.7
69144.5
69200.6
69271.8
69359.8
69466.5
69593.9
69744.1
69919.3
70121.2
70352.9
70615
70912
71241.8
71613.2
72016.1
72471.8
72946.9
73501.1
74032.1
74714.3
75243.4
76130.5
76482.6
77791.6
77449.5
79782.7
77253.2
71172.3
70666.2
70722.3
70503.7
70461
70314.5
70249.6
70141.8
70071.8
69985.9
69918
69845.8
69782.8
69720.1
69662.8
69607.3
69555.4
69505.8
69459
69414.3
69371.8
69331.2
69292.6
69255.7
69220.8
69187.8
69156.9
69128.5
69102.9
69080.5
69061.8
69047.6
69038.4
69035.2
69038.8
69050.3
69070.8
69101.8
69144.5
69200.6
69271.8
69359.8
69466.5
69594
69744.2
69919.4
70121.4
70353
70615.2
70912.2
71242.1
71613.5
72016.4
72472.2
72947.4
73501.7
74032.8
74715
75244.3
76131.6
76483.9
77793.1
77451.6
79784.4
77254.5
71171.8
70666.6
70722.5
70503.8
70461.1
70314.6
70249.7
70141.8
70071.8
69985.9
69918.1
69845.9
69782.9
69720.1
69662.8
69607.3
69555.4
69505.9
69459
69414.3
69371.8
69331.2
69292.6
69255.7
69220.8
69187.8
69156.9
69128.5
69102.9
69080.5
69061.9
69047.6
69038.4
69035.2
69038.8
69050.3
69070.8
69101.8
69144.5
69200.7
69271.8
69359.9
69466.6
69594.1
69744.3
69919.5
70121.5
70353.2
70615.3
70912.4
71242.3
71613.8
72016.8
72472.6
72947.9
73502.2
74033.4
74715.7
75245
76132.3
76484.7
77793.5
77453.1
79782.4
77257.3
71171.3
70667
70722.7
70503.9
70461.1
70314.6
70249.7
70141.9
70071.9
69986
69918.1
69845.9
69782.9
69720.2
69662.8
69607.3
69555.5
69505.9
69459
69414.3
69371.8
69331.3
69292.6
69255.8
69220.8
69187.8
69157
69128.5
69102.9
69080.5
69061.9
69047.6
69038.4
69035.2
69038.8
69050.3
69070.9
69101.8
69144.6
69200.7
69271.9
69359.9
69466.6
69594.2
69744.3
69919.6
70121.6
70353.3
70615.5
70912.6
71242.5
71614
72017
72472.9
72948.2
73502.5
74033.8
74716.1
75245.4
76132.5
76485.1
77793
77453.9
79777.1
77260.1
71170.7
70667.4
70722.9
70504.1
70461.2
70314.7
70249.8
70141.9
70071.9
69986
69918.1
69845.9
69782.9
69720.2
69662.8
69607.3
69555.5
69505.9
69459
69414.3
69371.8
69331.3
69292.6
69255.8
69220.8
69187.8
69157
69128.6
69102.9
69080.5
69061.9
69047.6
69038.5
69035.2
69038.8
69050.3
69070.9
69101.8
69144.6
69200.7
69271.9
69359.9
69466.7
69594.2
69744.4
69919.7
70121.7
70353.4
70615.6
70912.7
71242.7
71614.2
72017.3
72473.1
72948.5
73502.8
74034.1
74716.2
75245.6
76132.3
76485
77791.3
77453.9
79768.6
77263.3
71170.1
70667.8
70723.1
70504.2
70461.3
70314.7
70249.8
70142
70071.9
69986
69918.2
69845.9
69782.9
69720.2
69662.8
69607.4
69555.5
69505.9
69459.1
69414.4
69371.9
69331.3
69292.6
69255.8
69220.8
69187.8
69157
69128.6
69102.9
69080.5
69061.9
69047.6
69038.5
69035.2
69038.8
69050.3
69070.9
69101.9
69144.6
69200.8
69271.9
69360
69466.7
69594.3
69744.5
69919.8
70121.8
70353.5
70615.7
70912.8
71242.8
71614.3
72017.4
72473.3
72948.6
73502.8
74034.1
74716.1
75245.4
76131.5
76484.3
77788.4
77453.1
79756.9
77266.7
71169.5
70668.2
70723.2
70504.3
70461.4
70314.8
70249.9
70142
70072
69986.1
69918.2
69846
69783
69720.2
69662.9
69607.4
69555.5
69505.9
69459.1
69414.4
69371.9
69331.3
69292.6
69255.8
69220.8
69187.8
69157
69128.6
69103
69080.6
69061.9
69047.7
69038.5
69035.2
69038.8
69050.3
69070.9
69101.9
69144.6
69200.8
69271.9
69360
69466.7
69594.3
69744.5
69919.8
70121.8
70353.6
70615.8
70912.9
71242.9
71614.4
72017.4
72473.2
72948.5
73502.7
74033.9
74715.6
75244.9
76130.1
76482.9
77784.3
77451.4
79742
77270.3
71168.9
70668.7
70723.4
70504.5
70461.5
70314.9
70249.9
70142.1
70072
69986.1
69918.2
69846
69783
69720.2
69662.9
69607.4
69555.5
69505.9
69459.1
69414.4
69371.9
69331.3
69292.7
69255.8
69220.9
69187.9
69157
69128.6
69103
69080.6
69061.9
69047.7
69038.5
69035.3
69038.9
69050.4
69070.9
69101.9
69144.6
69200.8
69272
69360
69466.8
69594.3
69744.5
69919.8
70121.8
70353.6
70615.8
70912.9
71242.8
71614.3
72017.3
72473.1
72948.3
73502.4
74033.5
74714.8
75243.9
76128
76480.9
77778.6
77448.7
79724
77274
71168.3
70669.1
70723.5
70504.6
70461.6
70315
70250
70142.1
70072.1
69986.1
69918.3
69846
69783
69720.3
69662.9
69607.4
69555.6
69506
69459.1
69414.4
69371.9
69331.4
69292.7
69255.9
69220.9
69187.9
69157.1
69128.6
69103
69080.6
69062
69047.7
69038.5
69035.3
69038.9
69050.4
69070.9
69101.9
69144.6
69200.8
69272
69360
69466.8
69594.3
69744.5
69919.8
70121.8
70353.5
70615.7
70912.8
71242.7
71614.2
72017.1
72472.8
72948
73501.8
74032.8
74713.6
75242.5
76125.1
76478.2
77771.5
77444.9
79702.8
77277.6
71167.6
70669.4
70723.6
70504.7
70461.7
70315.1
70250.1
70142.2
70072.1
69986.2
69918.3
69846.1
69783.1
69720.3
69662.9
69607.4
69555.6
69506
69459.1
69414.4
69371.9
69331.4
69292.7
69255.9
69220.9
69187.9
69157.1
69128.7
69103
69080.6
69062
69047.7
69038.5
69035.3
69038.9
69050.4
69070.9
69101.9
69144.6
69200.8
69272
69360
69466.7
69594.3
69744.5
69919.7
70121.7
70353.4
70615.6
70912.6
71242.5
71613.9
72016.8
72472.3
72947.4
73500.9
74031.8
74711.9
75240.5
76121.4
76474.7
77762.9
77440
79678.7
77281.1
71166.8
70669.8
70723.7
70504.8
70461.9
70315.2
70250.1
70142.2
70072.2
69986.2
69918.3
69846.1
69783.1
69720.3
69663
69607.5
69555.6
69506
69459.2
69414.5
69372
69331.4
69292.7
69255.9
69220.9
69187.9
69157.1
69128.7
69103
69080.6
69062
69047.7
69038.6
69035.3
69038.9
69050.4
69070.9
69101.9
69144.6
69200.8
69271.9
69360
69466.7
69594.2
69744.4
69919.6
70121.6
70353.3
70615.4
70912.4
71242.2
71613.5
72016.3
72471.7
72946.6
73499.8
74030.4
74709.7
75238
76116.9
76470.4
77752.7
77433.9
79651.5
77284.1
71166
70670.3
70723.7
70504.9
70462
70315.2
70250.2
70142.3
70072.2
69986.3
69918.4
69846.1
69783.1
69720.4
69663
69607.5
69555.6
69506
69459.2
69414.5
69372
69331.4
69292.8
69255.9
69221
69188
69157.1
69128.7
69103.1
69080.7
69062
69047.7
69038.6
69035.3
69038.9
69050.4
69070.9
69101.9
69144.6
69200.7
69271.9
69359.9
69466.6
69594.1
69744.3
69919.5
70121.5
70353.1
70615.2
70912.1
71241.8
71613
72015.6
72470.9
72945.5
73498.3
74028.5
74706.9
75234.9
76111.6
76465.2
77740.9
77426.4
79621.2
77286.6
71165.2
70670.7
70723.8
70505
70462.1
70315.3
70250.3
70142.4
70072.3
69986.3
69918.4
69846.2
69783.2
69720.4
69663
69607.5
69555.7
69506.1
69459.2
69414.5
69372
69331.4
69292.8
69255.9
69221
69188
69157.1
69128.7
69103.1
69080.7
69062
69047.8
69038.6
69035.3
69038.9
69050.4
69070.9
69101.9
69144.6
69200.7
69271.8
69359.9
69466.5
69594
69744.2
69919.4
70121.3
70352.8
70614.8
70911.6
71241.3
71612.3
72014.8
72469.8
72944.2
73496.5
74026.3
74703.7
75231.2
76105.2
76459
77727.2
77417.6
79587.7
77288.3
71164.3
70671.2
70723.8
70505.1
70462.1
70315.4
70250.4
70142.4
70072.3
69986.4
69918.5
69846.2
69783.2
69720.4
69663.1
69607.6
69555.7
69506.1
69459.2
69414.5
69372
69331.5
69292.8
69256
69221
69188
69157.2
69128.7
69103.1
69080.7
69062.1
69047.8
69038.6
69035.3
69038.9
69050.4
69070.9
69101.8
69144.6
69200.7
69271.8
69359.8
69466.4
69593.9
69744
69919.1
70121
70352.5
70614.4
70911.1
71240.6
71611.5
72013.8
72468.4
72942.5
73494.2
74023.6
74699.8
75226.9
76097.9
76451.8
77711.7
77407.3
79550.9
77289
71163.4
70671.7
70723.9
70505.1
70462.2
70315.5
70250.5
70142.5
70072.4
69986.5
69918.5
69846.3
69783.2
69720.5
69663.1
69607.6
69555.7
69506.1
69459.3
69414.6
69372.1
69331.5
69292.8
69256
69221
69188
69157.2
69128.8
69103.1
69080.7
69062.1
69047.8
69038.6
69035.3
69038.9
69050.3
69070.9
69101.8
69144.5
69200.6
69271.7
69359.7
69466.3
69593.7
69743.8
69918.9
70120.6
70352.1
70613.9
70910.5
71239.8
71610.5
72012.5
72466.8
72940.5
73491.6
74020.5
74695.2
75221.8
76089.5
76443.5
77694.1
77395.4
79510.6
77288.4
71162.5
70672.1
70723.9
70505.2
70462.3
70315.6
70250.6
70142.6
70072.5
69986.5
69918.6
69846.3
69783.3
69720.5
69663.1
69607.6
69555.8
69506.2
69459.3
69414.6
69372.1
69331.5
69292.9
69256
69221.1
69188.1
69157.2
69128.8
69103.2
69080.7
69062.1
69047.8
69038.6
69035.3
69038.9
69050.3
69070.9
69101.8
69144.4
69200.5
69271.6
69359.5
69466.1
69593.5
69743.5
69918.5
70120.2
70351.5
70613.2
70909.7
71238.9
71609.3
72011
72464.8
72938.1
73488.5
74016.8
74690
75215.9
76079.8
76434
77674.4
77381.8
79466.9
77286.5
71161.6
70672.6
70724
70505.2
70462.3
70315.7
70250.6
70142.7
70072.5
69986.6
69918.6
69846.4
69783.3
69720.6
69663.2
69607.7
69555.8
69506.2
69459.3
69414.6
69372.1
69331.6
69292.9
69256.1
69221.1
69188.1
69157.2
69128.8
69103.2
69080.8
69062.1
69047.8
69038.6
69035.3
69038.9
69050.3
69070.8
69101.7
69144.4
69200.4
69271.5
69359.4
69465.9
69593.2
69743.2
69918.1
70119.7
70350.9
70612.5
70908.7
71237.7
71607.8
72009.2
72462.6
72935.4
73484.8
74012.5
74684
75209.1
76068.9
76423.2
77652.5
77366.5
79419.4
77283
71160.6
70673.1
70724
70505.2
70462.4
70315.7
70250.7
70142.7
70072.6
69986.6
69918.7
69846.4
69783.4
69720.6
69663.2
69607.7
69555.8
69506.2
69459.4
69414.7
69372.2
69331.6
69292.9
69256.1
69221.1
69188.1
69157.3
69128.8
69103.2
69080.8
69062.1
69047.8
69038.6
69035.3
69038.8
69050.3
69070.8
69101.6
69144.3
69200.3
69271.3
69359.2
69465.7
69592.9
69742.8
69917.6
70119.1
70350.2
70611.6
70907.6
71236.3
71606.1
72007.1
72459.9
72932.2
73480.7
74007.6
74677.1
75201.4
76056.7
76411.1
77628.2
77349.3
79368.1
77277.7
71159.5
70673.6
70724.1
70505.2
70462.4
70315.8
70250.8
70142.8
70072.7
69986.7
69918.8
69846.5
69783.4
69720.7
69663.3
69607.8
69555.9
69506.3
69459.4
69414.7
69372.2
69331.6
69293
69256.1
69221.1
69188.1
69157.3
69128.9
69103.2
69080.8
69062.1
69047.8
69038.6
69035.3
69038.8
69050.2
69070.7
69101.6
69144.2
69200.2
69271.1
69358.9
69465.4
69592.6
69742.3
69917.1
70118.5
70349.4
70610.5
70906.3
71234.7
71604.1
72004.7
72456.9
72928.5
73476
74002
74669.4
75192.8
76042.9
76397.5
77601.4
77330.2
79312.8
77270.4
71158.5
70674.2
70724.1
70505.3
70462.4
70315.9
70250.9
70142.9
70072.8
69986.8
69918.8
69846.5
69783.5
69720.7
69663.3
69607.8
69555.9
69506.3
69459.4
69414.7
69372.2
69331.7
69293
69256.1
69221.2
69188.2
69157.3
69128.9
69103.2
69080.8
69062.1
69047.8
69038.6
69035.3
69038.8
69050.2
69070.6
69101.5
69144.1
69200
69270.9
69358.7
69465.1
69592.2
69741.8
69916.4
70117.7
70348.4
70609.3
70904.8
71232.9
71601.8
72001.9
72453.4
72924.4
73470.6
73995.7
74660.6
75183
76027.6
76382.3
77572
77308.9
79253.5
77260.8
71157.4
70674.7
70724.2
70505.3
70462.5
70315.9
70250.9
70143
70072.8
69986.8
69918.9
69846.6
69783.5
69720.8
69663.4
69607.9
69556
69506.4
69459.5
69414.8
69372.3
69331.7
69293
69256.2
69221.2
69188.2
69157.3
69128.9
69103.2
69080.8
69062.1
69047.8
69038.6
69035.2
69038.7
69050.1
69070.6
69101.3
69143.9
69199.8
69270.7
69358.4
69464.7
69591.7
69741.2
69915.7
70116.7
70347.2
70607.9
70903.1
71230.8
71599.2
71998.8
72449.5
72919.7
73464.5
73988.6
74650.8
75172
76010.7
76365.5
77539.9
77285.4
79190
77248.6
71156.3
70675.3
70724.2
70505.4
70462.5
70315.9
70251
70143
70072.9
69986.9
69919
69846.7
69783.6
69720.8
69663.4
69607.9
69556
69506.4
69459.5
69414.8
69372.3
69331.7
69293
69256.2
69221.2
69188.2
69157.4
69128.9
69103.3
69080.8
69062.1
69047.8
69038.5
69035.2
69038.7
69050.1
69070.5
69101.2
69143.7
69199.6
69270.4
69358
69464.2
69591.1
69740.5
69914.8
70115.7
70345.9
70606.3
70901.1
71228.4
71596.3
71995.2
72445.1
72914.3
73457.7
73980.6
74639.9
75159.8
75991.9
76346.9
77504.9
77259.6
79122.1
77233.8
71155.1
70675.9
70724.3
70505.4
70462.5
70316
70251
70143.1
70073
69987
69919
69846.7
69783.7
69720.9
69663.5
69608
69556.1
69506.4
69459.6
69414.8
69372.3
69331.8
69293.1
69256.2
69221.2
69188.2
69157.4
69128.9
69103.3
69080.8
69062.1
69047.8
69038.5
69035.2
69038.6
69050
69070.3
69101.1
69143.5
69199.3
69270.1
69357.6
69463.7
69590.5
69739.7
69913.9
70114.5
70344.4
70604.5
70898.9
71225.7
71592.9
71991.2
72440.1
72908.4
73450.1
73971.6
74627.8
75146.3
75971.3
76326.3
77466.8
77231.3
79049.8
77215.8
71153.9
70676.5
70724.3
70505.4
70462.6
70316
70251
70143.1
70073
69987
69919.1
69846.8
69783.7
69720.9
69663.5
69608
69556.1
69506.5
69459.6
69414.9
69372.4
69331.8
69293.1
69256.3
69221.3
69188.3
69157.4
69128.9
69103.3
69080.8
69062.1
69047.8
69038.5
69035.1
69038.6
69049.9
69070.2
69100.9
69143.3
69199
69269.7
69357.1
69463.1
69589.7
69738.8
69912.7
70113.1
70342.8
70602.5
70896.4
71222.6
71589.2
71986.7
72434.5
72901.7
73441.5
73961.7
74614.3
75131.2
75948.6
76303.7
77425.6
77200.4
78972.9
77194.6
71152.6
70677.1
70724.4
70505.5
70462.6
70316
70251.1
70143.2
70073.1
69987.1
69919.1
69846.9
69783.8
69721
69663.6
69608.1
69556.2
69506.5
69459.7
69414.9
69372.4
69331.8
69293.2
69256.3
69221.3
69188.3
69157.4
69129
69103.3
69080.8
69062.1
69047.7
69038.5
69035.1
69038.5
69049.8
69070.1
69100.7
69143.1
69198.7
69269.3
69356.6
69462.5
69588.9
69737.8
69911.5
70111.6
70340.9
70600.1
70893.6
71219.2
71585
71981.6
72428.2
72894.2
73432
73950.6
74599.4
75114.6
75923.7
76278.8
77381
77166.6
78891.3
77169.8
71151.3
70677.8
70724.4
70505.5
70462.6
70316.1
70251.1
70143.2
70073.1
69987.1
69919.2
69846.9
69783.9
69721.1
69663.6
69608.1
69556.2
69506.6
69459.7
69415
69372.5
69331.9
69293.2
69256.3
69221.3
69188.3
69157.4
69129
69103.3
69080.8
69062.1
69047.7
69038.4
69035
69038.4
69049.6
69069.9
69100.5
69142.8
69198.3
69268.8
69356
69461.7
69588
69736.7
69910.1
70109.8
70338.8
70597.6
70890.4
71215.4
71580.3
71976
72421.2
72885.9
73421.5
73938.3
74582.9
75096.2
75896.5
76251.7
77333
77129.8
78805
77141
71150
70678.4
70724.5
70505.5
70462.7
70316.1
70251.1
70143.2
70073.1
69987.2
69919.2
69847
69783.9
69721.1
69663.7
69608.2
69556.3
69506.6
69459.8
69415
69372.5
69331.9
69293.2
69256.4
69221.4
69188.3
69157.4
69129
69103.3
69080.8
69062.1
69047.7
69038.3
69034.9
69038.3
69049.5
69069.7
69100.2
69142.4
69197.9
69268.3
69355.4
69460.9
69587
69735.4
69908.5
70107.9
70336.4
70594.7
70886.9
71211.1
71575.1
71969.7
72413.5
72876.6
73409.9
73924.6
74564.8
75076
75866.9
76221.9
77281.3
77089.9
78713.8
77108.1
71148.6
70679.1
70724.5
70505.6
70462.7
70316.1
70251.2
70143.2
70073.2
69987.2
69919.3
69847
69784
69721.2
69663.8
69608.2
69556.3
69506.7
69459.8
69415.1
69372.6
69332
69293.3
69256.4
69221.4
69188.4
69157.5
69129
69103.3
69080.8
69062
69047.6
69038.3
69034.8
69038.1
69049.3
69069.5
69099.9
69142.1
69197.5
69267.7
69354.6
69460
69585.8
69734
69906.8
70105.7
70333.8
70591.5
70883
71206.4
71569.3
71962.7
72404.9
72866.4
73397
73909.6
74544.9
75053.8
75834.6
76189.5
77225.9
77046.5
78617.8
77070.6
71147.2
70679.8
70724.6
70505.6
70462.7
70316.1
70251.2
70143.3
70073.2
69987.3
69919.3
69847.1
69784
69721.2
69663.8
69608.3
69556.4
69506.8
69459.9
69415.1
69372.6
69332
69293.3
69256.4
69221.4
69188.4
69157.5
69129
69103.3
69080.8
69062
69047.6
69038.2
69034.7
69038
69049.1
69069.2
69099.6
69141.7
69196.9
69267
69353.8
69458.9
69584.5
69732.4
69904.8
70103.4
70330.8
70587.9
70878.6
71201.1
71562.9
71955
72395.4
72855.1
73382.8
73893
74523.1
75029.5
75799.5
76154.2
77166.5
76999.6
78516.7
77028.2
71145.7
70680.5
70724.6
70505.6
70462.8
70316.2
70251.2
70143.3
70073.2
69987.3
69919.4
69847.1
69784.1
69721.3
69663.9
69608.3
69556.4
69506.8
69459.9
69415.2
69372.7
69332.1
69293.4
69256.5
69221.5
69188.4
69157.5
69129
69103.3
69080.7
69062
69047.5
69038.1
69034.6
69037.8
69048.9
69069
69099.3
69141.2
69196.3
69266.3
69352.9
69457.8
69583.1
69730.6
69902.6
70100.7
70327.6
70583.9
70873.8
71195.3
71555.8
71946.4
72384.9
72842.6
73367.1
73874.8
74499.2
75002.8
75761.5
76115.8
77103
76948.7
78410.5
76980.7
71144.2
70681.3
70724.7
70505.7
70462.8
70316.2
70251.2
70143.3
70073.3
69987.3
69919.4
69847.1
69784.1
69721.3
69663.9
69608.4
69556.5
69506.9
69460
69415.2
69372.7
69332.1
69293.4
69256.5
69221.5
69188.4
69157.5
69129
69103.3
69080.7
69061.9
69047.4
69038
69034.5
69037.7
69048.7
69068.6
69098.9
69140.7
69195.7
69265.5
69351.8
69456.5
69581.5
69728.7
69900.2
70097.7
70323.9
70579.5
70868.4
71188.8
71547.9
71937
72373.3
72828.8
73349.9
73854.7
74473.1
74973.7
75720.3
76074.1
77035.2
76893.7
78299.2
76927.7
71142.7
70682.1
70724.7
70505.7
70462.8
70316.2
70251.2
70143.3
70073.3
69987.3
69919.4
69847.2
69784.1
69721.4
69664
69608.4
69556.5
69506.9
69460
69415.3
69372.8
69332.1
69293.4
69256.5
69221.5
69188.4
69157.5
69129
69103.2
69080.7
69061.9
69047.4
69037.9
69034.3
69037.5
69048.4
69068.3
69098.4
69140.1
69195
69264.6
69350.7
69455.1
69579.7
69726.5
69897.5
70094.5
70319.9
70574.7
70862.5
71181.6
71539.2
71926.5
72360.5
72813.6
73331
73832.7
74444.6
74941.8
75675.7
76028.8
76962.9
76834.3
78182.7
76868.9
71141
70682.9
70724.8
70505.8
70462.8
70316.3
70251.3
70143.4
70073.3
69987.4
69919.4
69847.2
69784.2
69721.4
69664
69608.5
69556.6
69507
69460.1
69415.3
69372.8
69332.2
69293.5
69256.6
69221.5
69188.5
69157.5
69129
69103.2
69080.6
69061.8
69047.3
69037.8
69034.1
69037.2
69048.1
69067.9
69097.9
69139.5
69194.2
69263.6
69349.4
69453.5
69577.8
69724.1
69894.6
70090.8
70315.5
70569.3
70856
71173.7
71529.6
71915
72346.4
72796.9
73310.3
73808.6
74413.5
74907.1
75627.6
75979.6
76885.9
76770.3
78060.9
76803.9
71139.4
70683.7
70724.9
70505.8
70462.9
70316.3
70251.3
70143.4
70073.3
69987.4
69919.5
69847.2
69784.2
69721.4
69664
69608.5
69556.6
69507
69460.1
69415.4
69372.8
69332.2
69293.5
69256.6
69221.6
69188.5
69157.5
69129
69103.2
69080.6
69061.7
69047.2
69037.7
69034
69037
69047.8
69067.5
69097.4
69138.8
69193.3
69262.5
69348
69451.8
69575.6
69721.4
69891.3
70086.8
70310.7
70563.4
70848.8
71165.1
71519
71902.3
72331
72778.6
73287.6
73782.1
74379.6
74869.1
75575.6
75926.4
76803.9
76701.2
77933.7
76732.4
71137.7
70684.5
70724.9
70505.9
70462.9
70316.3
70251.3
70143.4
70073.3
69987.4
69919.5
69847.2
69784.2
69721.5
69664.1
69608.6
69556.7
69507
69460.1
69415.4
69372.9
69332.3
69293.5
69256.6
69221.6
69188.5
69157.5
69129
69103.2
69080.6
69061.7
69047.1
69037.5
69033.7
69036.7
69047.4
69067
69096.8
69138
69192.3
69261.2
69346.5
69449.9
69573.3
69718.5
69887.7
70082.5
70305.3
70556.9
70840.9
71155.5
71507.4
71888.4
72314
72758.5
73262.7
73753.2
74342.7
74827.8
75519.5
75868.7
76716.8
76626.7
77801
76654.1
71135.9
70685.4
70725
70505.9
70462.9
70316.3
70251.3
70143.4
70073.4
69987.4
69919.5
69847.3
69784.2
69721.5
69664.1
69608.6
69556.7
69507.1
69460.2
69415.4
69372.9
69332.3
69293.6
69256.7
69221.6
69188.5
69157.5
69129
69103.1
69080.5
69061.6
69047
69037.3
69033.5
69036.4
69047.1
69066.5
69096.1
69137.2
69191.3
69259.9
69344.8
69447.8
69570.7
69715.3
69883.8
70077.7
70299.4
70549.8
70832.2
71145
71494.7
71873.2
72295.4
72736.4
73235.5
73721.5
74302.6
74782.8
75459.1
75806.3
76624.2
76546.6
77662.6
76568.4
71134.1
70686.3
70725
70505.9
70463
70316.4
70251.4
70143.5
70073.4
69987.4
69919.5
69847.3
69784.2
69721.5
69664.1
69608.6
69556.7
69507.1
69460.2
69415.5
69372.9
69332.3
69293.6
69256.7
69221.6
69188.5
69157.5
69128.9
69103.1
69080.5
69061.5
69046.8
69037.2
69033.3
69036.1
69046.6
69066
69095.4
69136.3
69190.1
69258.5
69343
69445.5
69567.9
69711.8
69879.5
70072.4
70293
70542
70822.7
71133.6
71480.8
71856.5
72275.2
72712.3
73205.9
73687
74259
74733.9
75394
75738.8
76526
76460.3
77518.3
76475.1
71132.3
70687.2
70725.1
70506
70463
70316.4
70251.4
70143.5
70073.4
69987.5
69919.5
69847.3
69784.3
69721.5
69664.1
69608.6
69556.8
69507.1
69460.3
69415.5
69373
69332.4
69293.6
69256.7
69221.6
69188.5
69157.5
69128.9
69103.1
69080.4
69061.4
69046.7
69037
69033.1
69035.8
69046.2
69065.4
69094.7
69135.3
69188.9
69256.9
69341
69443
69564.8
69708
69874.9
70066.7
70286
70533.5
70812.4
71121.1
71465.6
71838.3
72253
72686.1
73173.6
73649.3
74211.6
74680.6
75324
75665.8
76421.7
76367.5
77368
76373.8
71130.3
70688.1
70725.2
70506.1
70463.1
70316.4
70251.4
70143.5
70073.4
69987.5
69919.6
69847.3
69784.3
69721.5
69664.1
69608.6
69556.8
69507.1
69460.3
69415.6
69373
69332.4
69293.6
69256.7
69221.6
69188.5
69157.5
69128.9
69103
69080.3
69061.3
69046.6
69036.8
69032.8
69035.4
69045.7
69064.8
69093.9
69134.3
69187.5
69255.2
69338.9
69440.3
69561.5
69703.9
69869.8
70060.5
70278.4
70524.2
70801.1
71107.5
71449.1
71818.5
72228.9
72657.4
73138.5
73608.3
74160.3
74622.8
75248.6
75586.9
76311
76267.7
77211.2
76264.1
71128.4
70689.1
70725.2
70506.1
70463.1
70316.5
70251.5
70143.5
70073.4
69987.5
69919.6
69847.3
69784.3
69721.5
69664.2
69608.6
69556.8
69507.2
69460.3
69415.5
69373
69332.4
69293.7
69256.7
69221.6
69188.5
69157.5
69128.9
69103
69080.3
69061.2
69046.4
69036.6
69032.5
69035.1
69045.2
69064.1
69093
69133.1
69186.1
69253.3
69336.5
69437.4
69557.7
69699.3
69864.1
70053.6
70270
70514
70788.7
71092.6
71431
71796.8
72202.6
72626.2
73100.3
73563.7
74104.7
74560
75167.5
75501.7
76193.4
76160.4
77047.6
76145.8
71126.4
70690.1
70725.3
70506.2
70463.1
70316.5
70251.5
70143.6
70073.5
69987.5
69919.6
69847.3
69784.3
69721.6
69664.2
69608.7
69556.8
69507.2
69460.3
69415.5
69373
69332.4
69293.7
69256.8
69221.7
69188.5
69157.5
69128.8
69102.9
69080.2
69061.1
69046.3
69036.4
69032.2
69034.6
69044.6
69063.4
69092
69131.8
69184.4
69251.2
69333.9
69434.1
69553.6
69694.3
69857.9
70046
70260.7
70502.7
70775.1
71076
71411.1
71773
72173.8
72592.1
73058.7
73515.1
74044.6
74492
75080.4
75409.6
76068.7
76045.1
76876.7
76018.6
71124.3
70691.1
70725.3
70506.2
70463.2
70316.6
70251.5
70143.6
70073.5
69987.6
69919.6
69847.4
69784.3
69721.6
69664.2
69608.7
69556.8
69507.2
69460.3
69415.5
69373
69332.4
69293.6
69256.7
69221.7
69188.5
69157.5
69128.9
69102.9
69080.1
69061
69046.1
69036.1
69031.9
69034.2
69044
69062.5
69090.9
69130.4
69182.6
69248.9
69331
69430.4
69549.1
69688.7
69851
70037.6
70250.5
70490.3
70760
71057.9
71389.2
71746.9
72142.3
72554.6
73013.3
73462.3
73979.4
74418.3
74986.9
75310.3
75936.3
75921.3
76698
75882.5
71122.2
70692.1
70725.4
70506.3
70463.2
70316.6
70251.6
70143.6
70073.5
69987.6
69919.6
69847.4
69784.4
69721.6
69664.2
69608.7
69556.8
69507.2
69460.3
69415.6
69373
69332.4
69293.6
69256.7
69221.6
69188.5
69157.4
69128.8
69102.9
69080.1
69060.9
69046
69035.9
69031.5
69033.7
69043.4
69061.6
69089.7
69128.9
69180.6
69246.4
69327.8
69426.5
69544.2
69682.6
69843.6
70028.5
70239.4
70476.8
70743.6
71038.2
71365.3
71718.2
72107.7
72513.7
72963.9
73404.6
73908.7
74338.4
74886.5
75203.3
75795.9
75788.5
76510.7
75737.6
71120
70693.1
70725.5
70506.4
70463.3
70316.6
70251.6
70143.7
70073.5
69987.6
69919.7
69847.4
69784.4
69721.6
69664.2
69608.7
69556.8
69507.2
69460.3
69415.5
69373
69332.4
69293.6
69256.7
69221.6
69188.5
69157.4
69128.8
69102.8
69080
69060.8
69045.8
69035.6
69031.2
69033.2
69042.7
69060.7
69088.5
69127.3
69178.6
69243.7
69324.4
69422.3
69538.9
69676.1
69835.5
70018.6
70227.3
70462.2
70725.9
71016.7
71339.4
71687.2
72070.3
72469.3
72910.1
73341.8
73832.3
74251.8
74778.7
75088.2
75646.8
75646.3
76314.6
75584
71117.8
70694.2
70725.5
70506.4
70463.3
70316.7
70251.6
70143.7
70073.6
69987.6
69919.7
69847.4
69784.4
69721.6
69664.2
69608.7
69556.8
69507.2
69460.3
69415.6
69373
69332.4
69293.6
69256.7
69221.6
69188.4
69157.4
69128.7
69102.8
69079.9
69060.7
69045.6
69035.4
69030.8
69032.7
69041.9
69059.7
69087.2
69125.6
69176.3
69240.9
69320.8
69417.7
69533.3
69669.1
69826.9
70008
70214.3
70446.4
70706.6
70993.5
71311.3
71653.5
72029.6
72421.1
72851.9
73273.9
73749.8
74158.2
74663.3
74964.4
75489.1
75494.4
76108.7
75421.5
71115.5
70695.3
70725.6
70506.5
70463.4
70316.7
70251.7
70143.7
70073.6
69987.7
69919.7
69847.5
69784.4
69721.6
69664.3
69608.7
69556.8
69507.2
69460.3
69415.6
69373
69332.4
69293.6
69256.6
69221.6
69188.4
69157.4
69128.7
69102.7
69079.8
69060.5
69045.4
69035.1
69030.4
69032.1
69041.1
69058.7
69085.8
69123.7
69174
69237.9
69317
69412.9
69527.3
69661.7
69817.8
69996.8
70200.6
70429.7
70686.3
70968.9
71281.5
71617.6
71986.1
72369.3
72789.3
73200.6
73661
74057.3
74539.9
74831.5
75322.6
75332.5
75893.2
75249.8
71113.2
70696.4
70725.7
70506.6
70463.4
70316.8
70251.7
70143.8
70073.6
69987.7
69919.7
69847.5
69784.4
69721.7
69664.3
69608.8
69556.9
69507.2
69460.3
69415.6
69373
69332.3
69293.6
69256.6
69221.5
69188.4
69157.3
69128.6
69102.6
69079.7
69060.4
69045.2
69034.8
69029.9
69031.5
69040.3
69057.5
69084.2
69121.8
69171.4
69234.6
69312.9
69407.8
69520.9
69653.7
69808
69984.8
70186
70411.9
70664.7
70942.8
71249.9
71579.7
71940.2
72314.5
72722.8
73122.4
73566.1
73949.1
74408.2
74689.2
75146.5
75160
75668.6
75069
71110.8
70697.6
70725.7
70506.6
70463.5
70316.8
70251.7
70143.8
70073.7
69987.7
69919.8
69847.5
69784.5
69721.7
69664.3
69608.8
69556.9
69507.2
69460.3
69415.6
69373
69332.3
69293.6
69256.6
69221.5
69188.3
69157.3
69128.6
69102.5
69079.6
69060.2
69044.9
69034.4
69029.4
69030.8
69039.4
69056.3
69082.6
69119.6
69168.7
69231.1
69308.5
69402.2
69514
69645.2
69797.5
69972
70170.4
70392.9
70641.7
70915.1
71216.4
71539.4
71891.7
72256.7
72653
73040.1
73466.4
73834.5
74268.9
74537.5
74960.6
74976.6
75434.1
74878.8
71108.3
70698.7
70725.8
70506.7
70463.5
70316.9
70251.8
70143.8
70073.7
69987.7
69919.8
69847.5
69784.5
69721.7
69664.3
69608.8
69556.9
69507.2
69460.3
69415.6
69373
69332.3
69293.6
69256.6
69221.5
69188.3
69157.2
69128.5
69102.5
69079.5
69060
69044.7
69034.1
69028.9
69030.1
69038.4
69055
69080.9
69117.4
69165.7
69227.4
69303.7
69396.3
69506.7
69636.1
69786.3
69958.3
70153.7
70372.7
70617.2
70885.5
71180.7
71496.8
71840.3
72195.6
72579.4
72953.8
73362.2
73714.7
74123.6
74377.8
74766.1
74782.3
75189.1
74680.1
71105.9
70699.9
70725.9
70506.8
70463.6
70316.9
70251.8
70143.9
70073.7
69987.8
69919.8
69847.5
69784.5
69721.7
69664.3
69608.8
69556.9
69507.3
69460.3
69415.6
69373
69332.3
69293.5
69256.6
69221.5
69188.3
69157.2
69128.4
69102.4
69079.3
69059.8
69044.4
69033.7
69028.4
69029.3
69037.3
69053.5
69079
69114.9
69162.6
69223.4
69298.7
69390
69498.8
69626.4
69774.4
69943.7
70135.9
70351.1
70591.1
70854.1
71142.9
71451.5
71785.9
72131.1
72502
72863.1
73253.2
73589.6
73972.9
74211.8
74564.8
74578.5
74934.4
74474.2
71103.3
70701.1
70725.9
70506.9
70463.6
70316.9
70251.8
70143.9
70073.7
69987.8
69919.8
69847.6
69784.5
69721.7
69664.3
69608.8
69556.9
69507.3
69460.3
69415.6
69373
69332.3
69293.5
69256.6
69221.4
69188.2
69157.1
69128.4
69102.3
69079.2
69059.6
69044.1
69033.2
69027.8
69028.4
69036.2
69052
69077
69112.3
69159.2
69219.1
69293.3
69383.2
69490.4
69616
69761.6
69928.1
70116.9
70328.2
70563.3
70820.7
71102.6
71403.4
71728.3
72062.9
72420.4
72767.6
73139.2
73459.1
73816.9
74039.9
74358.1
74367.5
74672.6
74259.2
71100.8
70702.3
70726
70507
70463.7
70317
70251.9
70143.9
70073.8
69987.8
69919.9
69847.6
69784.5
69721.8
69664.4
69608.8
69556.9
69507.3
69460.4
69415.6
69373
69332.3
69293.5
69256.5
69221.4
69188.2
69157.1
69128.3
69102.2
69079
69059.4
69043.8
69032.8
69027.1
69027.5
69035
69050.4
69074.8
69109.5
69155.6
69214.5
69287.5
69375.9
69481.3
69604.9
69748
69911.5
70096.7
70303.6
70533.7
70785.1
71059.9
71352.5
71667.4
71990.8
72334.5
72667.4
73020
73322.8
73655.2
73861.9
74146.2
74150.4
74405.5
74032.5
71098.1
70703.6
70726.1
70507
70463.7
70317
70251.9
70144
70073.8
69987.9
69919.9
69847.6
69784.6
69721.8
69664.4
69608.9
69556.9
69507.3
69460.4
69415.6
69373
69332.3
69293.5
69256.5
69221.4
69188.1
69157
69128.2
69102
69078.9
69059.1
69043.4
69032.3
69026.4
69026.6
69033.6
69048.6
69072.5
69106.4
69151.7
69209.5
69281.2
69368.2
69471.7
69593
69733.4
69893.7
70075.1
70277.5
70502.3
70747.4
71014.6
71298.6
71603
71914.8
72244.2
72562.1
72895.4
73180.6
73487.7
73677.6
73929.1
73927.1
74134.2
73793
71095.5
70704.8
70726.1
70507.1
70463.8
70317.1
70252
70144
70073.8
69987.9
69919.9
69847.6
69784.6
69721.8
69664.4
69608.9
69557
69507.3
69460.4
69415.6
69373
69332.3
69293.5
69256.5
69221.3
69188.1
69157
69128.1
69101.9
69078.7
69058.9
69043
69031.7
69025.6
69025.5
69032.2
69046.7
69070
69103.2
69147.5
69204.2
69274.6
69359.9
69461.4
69580.3
69717.8
69874.7
70052.1
70249.7
70468.8
70707.3
70966.6
71241.5
71535
71834.7
72149.3
72451.7
72765.3
73032.5
73314.2
73486.8
73706.5
73697.2
73859.1
73541
71092.8
70706.1
70726.2
70507.2
70463.8
70317.1
70252
70144
70073.9
69987.9
69919.9
69847.7
69784.6
69721.8
69664.4
69608.9
69557
69507.3
69460.4
69415.6
69373
69332.3
69293.4
69256.4
69221.3
69188
69156.9
69128
69101.8
69078.5
69058.6
69042.6
69031.1
69024.8
69024.4
69030.7
69044.7
69067.3
69099.7
69143.1
69198.6
69267.5
69351
69450.4
69566.7
69701.2
69854.5
70027.6
70220.2
70433.2
70664.7
70915.7
71181
71463.2
71750.3
72049.6
72336.1
72629.6
72878.3
73134.8
73289.6
73478.4
73460.7
73580.3
73279.1
71090.1
70707.4
70726.2
70507.3
70463.9
70317.2
70252.1
70144.1
70073.9
69988
69920
69847.7
69784.6
69721.9
69664.4
69608.9
69557
69507.3
69460.4