/*--------------------------------*- C++ -*----------------------------------*\
| =========                 |                                                 |
| \\      /  F ield         | OpenFOAM: The Open Source CFD Toolbox           |
|  \\    /   O peration     | Version:  v1906                                 |
|   \\  /    A nd           | Web:      www.OpenFOAM.com                      |
|    \\/     M anipulation  |                                                 |
\*---------------------------------------------------------------------------*/
FoamFile
{
    version     2.0;
    format      ascii;
    class       surfaceScalarField;
    location    "0.1";
    object      phi;
}
// * * * * * * * * * * * * * * * * * * * * * * * * * * * * * * * * * * * * * //

dimensions      [0 3 -1 0 0 0 0];
oriented        oriented;


internalField   nonuniform List<scalar> 
159400
(
2.76245e-09
2.4006e-09
2.32253e-09
4.39917e-10
2.23341e-09
8.91287e-11
2.16737e-09
6.60321e-11
2.11391e-09
5.34675e-11
2.07295e-09
4.09596e-11
2.04077e-09
3.21805e-11
2.01477e-09
2.60003e-11
1.99327e-09
2.14993e-11
1.97521e-09
1.80612e-11
1.9598e-09
1.54021e-11
1.94653e-09
1.32733e-11
1.93497e-09
1.15581e-11
1.92483e-09
1.0139e-11
1.91587e-09
8.96676e-12
1.90787e-09
7.99906e-12
1.90064e-09
7.22412e-12
1.89401e-09
6.6293e-12
1.88781e-09
6.20756e-12
1.88186e-09
5.94284e-12
1.87605e-09
5.81086e-12
1.87028e-09
5.77629e-12
1.86448e-09
5.79959e-12
1.85864e-09
5.83904e-12
1.85278e-09
5.85944e-12
1.84695e-09
5.83247e-12
1.8412e-09
5.7437e-12
1.83561e-09
5.59554e-12
1.8302e-09
5.40162e-12
1.82502e-09
5.18635e-12
1.82004e-09
4.98163e-12
1.81521e-09
4.82331e-12
1.81047e-09
4.74792e-12
1.80568e-09
4.79024e-12
1.80069e-09
4.98207e-12
1.79534e-09
5.35163e-12
1.78942e-09
5.92341e-12
1.7827e-09
6.71876e-12
1.77494e-09
7.75618e-12
1.76589e-09
9.05282e-12
1.75527e-09
1.06242e-11
1.74278e-09
1.2487e-11
1.72812e-09
1.46564e-11
1.71097e-09
1.71527e-11
1.69098e-09
1.99927e-11
1.66777e-09
2.32055e-11
1.64096e-09
2.68077e-11
1.61012e-09
3.08484e-11
1.57478e-09
3.53344e-11
1.53442e-09
4.03611e-11
1.48853e-09
4.58894e-11
1.43638e-09
5.21524e-11
1.37745e-09
5.89308e-11
1.31059e-09
6.68561e-11
1.23547e-09
7.51205e-11
1.14984e-09
8.56263e-11
1.05427e-09
9.55703e-11
9.42601e-10
1.11674e-10
8.16399e-10
1.26202e-10
6.59011e-10
1.57388e-10
4.93992e-10
1.65019e-10
2.66883e-10
2.27109e-10
1.27544e-10
1.3934e-10
-1.15223e-10
2.42767e-10
1.84125e-10
-2.99348e-10
3.7867e-09
3.98243e-09
3.26353e-09
9.63088e-10
3.11566e-09
2.36991e-10
3.0332e-09
1.48496e-10
2.96925e-09
1.17412e-10
2.91927e-09
9.09447e-11
2.87972e-09
7.17339e-11
2.8478e-09
5.79173e-11
2.82144e-09
4.78557e-11
2.79934e-09
4.01681e-11
2.7805e-09
3.42376e-11
2.76428e-09
2.94889e-11
2.75017e-09
2.56692e-11
2.7378e-09
2.25094e-11
2.72687e-09
1.99018e-11
2.71712e-09
1.77479e-11
2.70832e-09
1.60213e-11
2.70026e-09
1.46919e-11
2.69272e-09
1.37439e-11
2.68552e-09
1.31415e-11
2.6785e-09
1.28321e-11
2.67154e-09
1.27387e-11
2.66456e-09
1.27753e-11
2.65755e-09
1.28509e-11
2.65052e-09
1.28878e-11
2.64353e-09
1.28251e-11
2.63665e-09
1.26301e-11
2.62993e-09
1.23061e-11
2.62345e-09
1.18822e-11
2.61723e-09
1.14108e-11
2.61125e-09
1.09604e-11
2.60547e-09
1.06083e-11
2.59978e-09
1.04337e-11
2.59406e-09
1.05122e-11
2.58813e-09
1.0913e-11
2.58178e-09
1.16978e-11
2.57478e-09
1.29198e-11
2.56688e-09
1.46259e-11
2.55778e-09
1.68565e-11
2.54718e-09
1.9649e-11
2.53477e-09
2.30376e-11
2.5202e-09
2.70585e-11
2.50311e-09
3.17455e-11
2.48312e-09
3.71429e-11
2.45982e-09
4.32882e-11
2.43278e-09
5.02468e-11
2.40153e-09
5.80559e-11
2.36555e-09
6.68273e-11
2.32431e-09
7.65779e-11
2.27714e-09
8.75287e-11
2.22344e-09
9.95949e-11
2.16228e-09
1.13309e-10
2.09301e-09
1.28201e-10
2.01416e-09
1.45704e-10
1.92522e-09
1.64059e-10
1.8233e-09
1.87544e-10
1.70884e-09
2.10037e-10
1.57457e-09
2.45945e-10
1.42522e-09
2.75551e-10
1.23975e-09
3.42859e-10
1.04096e-09
3.63806e-10
7.52459e-10
5.15609e-10
5.2192e-10
3.69878e-10
1.16029e-11
7.53085e-10
4.58264e-10
-2.62537e-10
4.35409e-09
5.21052e-09
3.80659e-09
1.51059e-09
3.61888e-09
4.24697e-10
3.52259e-09
2.44788e-10
3.45176e-09
1.88248e-10
3.39646e-09
1.46238e-10
3.35258e-09
1.15615e-10
3.31717e-09
9.33249e-11
3.28795e-09
7.70774e-11
3.26346e-09
6.46589e-11
3.2426e-09
5.50931e-11
3.22466e-09
4.74336e-11
3.20905e-09
4.12788e-11
3.19537e-09
3.61883e-11
3.18328e-09
3.19899e-11
3.17251e-09
2.85212e-11
3.16279e-09
2.57387e-11
3.15389e-09
2.35921e-11
3.14558e-09
2.20555e-11
3.13765e-09
2.10714e-11
3.12993e-09
2.05561e-11
3.12228e-09
2.03874e-11
3.11462e-09
2.04289e-11
3.10694e-09
2.05361e-11
3.09924e-09
2.05851e-11
3.09159e-09
2.04791e-11
3.08405e-09
2.01659e-11
3.07671e-09
1.96484e-11
3.06962e-09
1.89723e-11
3.06281e-09
1.82197e-11
3.05627e-09
1.74982e-11
3.04995e-09
1.69299e-11
3.04375e-09
1.66397e-11
3.03751e-09
1.67474e-11
3.03106e-09
1.73625e-11
3.02418e-09
1.85828e-11
3.0166e-09
2.0493e-11
3.00806e-09
2.31671e-11
2.99825e-09
2.66692e-11
2.98684e-09
3.10586e-11
2.97349e-09
3.63891e-11
2.95783e-09
4.2718e-11
2.93948e-09
5.00984e-11
2.91802e-09
5.86001e-11
2.89302e-09
6.82824e-11
2.86402e-09
7.92485e-11
2.83052e-09
9.15576e-11
2.79196e-09
1.05388e-10
2.74777e-09
1.20766e-10
2.69726e-09
1.38045e-10
2.63976e-09
1.57095e-10
2.57431e-09
1.78759e-10
2.5002e-09
2.02311e-10
2.41588e-09
2.30016e-10
2.3208e-09
2.59142e-10
2.21194e-09
2.9641e-10
2.08964e-09
3.32333e-10
1.94657e-09
3.89013e-10
1.78768e-09
4.34442e-10
1.5913e-09
5.39244e-10
1.38019e-09
5.74908e-10
1.07487e-09
8.20938e-10
8.06027e-10
6.38717e-10
2.2907e-10
1.33004e-09
8.18655e-10
-1.31321e-10
4.82668e-09
6.1882e-09
4.25611e-09
2.08115e-09
4.02972e-09
6.51091e-10
3.91726e-09
3.57247e-10
3.83892e-09
2.66586e-10
3.77848e-09
2.0668e-10
3.73051e-09
1.63583e-10
3.69181e-09
1.32024e-10
3.6599e-09
1.08995e-10
3.63317e-09
9.1388e-11
3.61042e-09
7.78401e-11
3.59086e-09
6.69948e-11
3.57385e-09
5.82866e-11
3.55895e-09
5.10865e-11
3.54579e-09
4.51511e-11
3.53407e-09
4.02465e-11
3.5235e-09
3.63097e-11
3.51382e-09
3.32674e-11
3.50479e-09
3.10824e-11
3.49619e-09
2.96733e-11
3.48783e-09
2.89229e-11
3.47955e-09
2.8661e-11
3.47128e-09
2.86972e-11
3.46299e-09
2.88297e-11
3.45469e-09
2.88849e-11
3.44644e-09
2.87277e-11
3.43832e-09
2.82843e-11
3.43041e-09
2.75569e-11
3.42278e-09
2.66079e-11
3.41545e-09
2.55506e-11
3.40841e-09
2.45338e-11
3.40162e-09
2.37267e-11
3.39495e-09
2.3303e-11
3.38827e-09
2.34292e-11
3.38138e-09
2.4258e-11
3.37403e-09
2.59254e-11
3.36598e-09
2.85494e-11
3.35691e-09
3.2233e-11
3.34651e-09
3.70653e-11
3.33444e-09
4.31287e-11
3.32034e-09
5.04975e-11
3.3038e-09
5.9251e-11
3.28444e-09
6.9462e-11
3.26181e-09
8.12273e-11
3.23547e-09
9.4628e-11
3.20491e-09
1.09807e-10
3.16962e-09
1.26845e-10
3.12902e-09
1.45989e-10
3.08251e-09
1.67276e-10
3.02936e-09
1.91198e-10
2.96888e-09
2.17572e-10
2.90007e-09
2.47565e-10
2.8222e-09
2.80189e-10
2.73365e-09
3.18558e-10
2.63384e-09
3.58957e-10
2.51968e-09
4.10573e-10
2.39146e-09
4.60551e-10
2.24178e-09
5.38693e-10
2.07525e-09
6.00971e-10
1.87038e-09
7.44108e-10
1.64911e-09
7.96185e-10
1.33364e-09
1.1364e-09
1.03915e-09
9.33213e-10
4.28926e-10
1.94026e-09
1.22448e-09
2.31038e-11
5.25636e-09
6.96719e-09
4.67351e-09
2.66401e-09
4.4067e-09
9.17896e-10
4.27539e-09
4.8856e-10
4.18835e-09
3.53622e-10
4.12242e-09
2.72612e-10
4.07025e-09
2.15755e-10
4.02819e-09
1.74081e-10
3.99354e-09
1.43651e-10
3.96454e-09
1.20385e-10
3.93988e-09
1.02497e-10
3.91869e-09
8.81847e-11
3.90028e-09
7.67001e-11
3.88416e-09
6.72083e-11
3.86992e-09
5.93872e-11
3.85724e-09
5.29238e-11
3.84582e-09
4.77324e-11
3.83537e-09
4.37141e-11
3.82564e-09
4.08182e-11
3.81637e-09
3.8938e-11
3.80738e-09
3.79205e-11
3.79849e-09
3.75443e-11
3.78963e-09
3.7562e-11
3.78075e-09
3.77113e-11
3.77187e-09
3.77652e-11
3.76305e-09
3.75479e-11
3.75437e-09
3.69622e-11
3.74592e-09
3.60087e-11
3.73776e-09
3.47669e-11
3.72992e-09
3.3382e-11
3.72241e-09
3.2046e-11
3.71516e-09
3.09774e-11
3.70806e-09
3.04012e-11
3.70096e-09
3.0533e-11
3.69365e-09
3.15709e-11
3.68588e-09
3.36913e-11
3.67738e-09
3.70474e-11
3.66784e-09
4.17728e-11
3.65693e-09
4.79828e-11
3.64427e-09
5.57838e-11
3.6295e-09
6.52714e-11
3.6122e-09
7.65476e-11
3.59196e-09
8.97059e-11
3.56831e-09
1.0487e-10
3.5408e-09
1.22143e-10
3.5089e-09
1.4171e-10
3.47207e-09
1.63672e-10
3.42971e-09
1.88347e-10
3.3812e-09
2.15783e-10
3.32579e-09
2.46609e-10
3.26277e-09
2.80596e-10
3.1911e-09
3.19236e-10
3.11001e-09
3.61277e-10
3.01788e-09
4.10689e-10
2.91406e-09
4.62775e-10
2.79544e-09
5.29196e-10
2.66225e-09
5.93741e-10
2.50708e-09
6.93863e-10
2.33425e-09
7.73795e-10
2.12254e-09
9.55821e-10
1.89284e-09
1.02589e-09
1.57078e-09
1.45846e-09
1.2574e-09
1.24659e-09
6.43961e-10
2.5537e-09
1.68188e-09
1.86558e-10
5.66369e-09
7.57905e-09
5.0807e-09
3.247e-09
4.77191e-09
1.22669e-09
4.61881e-09
6.4166e-10
4.52159e-09
4.50837e-10
4.44959e-09
3.44609e-10
4.39296e-09
2.72391e-10
4.34738e-09
2.19658e-10
4.30987e-09
1.81162e-10
4.27852e-09
1.51737e-10
4.25188e-09
1.29132e-10
4.22901e-09
1.11056e-10
4.20915e-09
9.65619e-11
4.19177e-09
8.45889e-11
4.17643e-09
7.4727e-11
4.16278e-09
6.65771e-11
4.15048e-09
6.00266e-11
4.13925e-09
5.4948e-11
4.12879e-09
5.12752e-11
4.11886e-09
4.8874e-11
4.10922e-09
4.75536e-11
4.09973e-09
4.70387e-11
4.09027e-09
4.7022e-11
4.0808e-09
4.71771e-11
4.07135e-09
4.72206e-11
4.06196e-09
4.69332e-11
4.05273e-09
4.61929e-11
4.04374e-09
4.49972e-11
4.03507e-09
4.34428e-11
4.02674e-09
4.17078e-11
4.01876e-09
4.00288e-11
4.01106e-09
3.86757e-11
4.00353e-09
3.79267e-11
3.99602e-09
3.80493e-11
3.9883e-09
3.92889e-11
3.98013e-09
4.18647e-11
3.97121e-09
4.59666e-11
3.96122e-09
5.17601e-11
3.94981e-09
5.93881e-11
3.93662e-09
6.89819e-11
3.92123e-09
8.06592e-11
3.90323e-09
9.45452e-11
3.88218e-09
1.10754e-10
3.85761e-09
1.29438e-10
3.82903e-09
1.50723e-10
3.79591e-09
1.74833e-10
3.75769e-09
2.01895e-10
3.71374e-09
2.32295e-10
3.66343e-09
2.66093e-10
3.60598e-09
3.04059e-10
3.54066e-09
3.45914e-10
3.46642e-09
3.93481e-10
3.38245e-09
4.4524e-10
3.28711e-09
5.0603e-10
3.17973e-09
5.70162e-10
3.05714e-09
6.5178e-10
2.91956e-09
7.31326e-10
2.75956e-09
8.53858e-10
2.58127e-09
9.52083e-10
2.36363e-09
1.17347e-09
2.12674e-09
1.26277e-09
1.80073e-09
1.78447e-09
1.4734e-09
1.57392e-09
8.73269e-10
3.15383e-09
2.16699e-09
3.88158e-10
6.05856e-09
8.04579e-09
5.48769e-09
3.81787e-09
5.1373e-09
1.57709e-09
4.95884e-09
8.20116e-10
4.84976e-09
5.59921e-10
4.77093e-09
4.23438e-10
4.70945e-09
3.33868e-10
4.66012e-09
2.6899e-10
4.61958e-09
2.21696e-10
4.58574e-09
1.85575e-10
4.55703e-09
1.57847e-10
4.53239e-09
1.35693e-10
4.51101e-09
1.17941e-10
4.49232e-09
1.03285e-10
4.47583e-09
9.1219e-11
4.46115e-09
8.12476e-11
4.44795e-09
7.32274e-11
4.4359e-09
6.69987e-11
4.4247e-09
6.2478e-11
4.41407e-09
5.95017e-11
4.40379e-09
5.78387e-11
4.39367e-09
5.71571e-11
4.3836e-09
5.7087e-11
4.37355e-09
5.72345e-11
4.36351e-09
5.72566e-11
4.35356e-09
5.68882e-11
4.34377e-09
5.59799e-11
4.33424e-09
5.45259e-11
4.32504e-09
5.26391e-11
4.31622e-09
5.05315e-11
4.30776e-09
4.84855e-11
4.29961e-09
4.68242e-11
4.29166e-09
4.58814e-11
4.28373e-09
4.59785e-11
4.27561e-09
4.74107e-11
4.26703e-09
5.04415e-11
4.2577e-09
5.52996e-11
4.24728e-09
6.21839e-11
4.2354e-09
7.12657e-11
4.22168e-09
8.27024e-11
4.2057e-09
9.66344e-11
4.18704e-09
1.13211e-10
4.16522e-09
1.32567e-10
4.13978e-09
1.54884e-10
4.11019e-09
1.80309e-10
4.07592e-09
2.09109e-10
4.03638e-09
2.41434e-10
3.99093e-09
2.77741e-10
3.93892e-09
3.181e-10
3.87956e-09
3.63425e-10
3.81208e-09
4.13386e-10
3.73543e-09
4.70139e-10
3.64877e-09
5.31897e-10
3.55043e-09
6.04369e-10
3.43972e-09
6.80874e-10
3.31345e-09
7.78047e-10
3.17179e-09
8.72984e-10
3.00733e-09
1.01832e-09
2.82403e-09
1.13538e-09
2.60104e-09
1.39646e-09
2.35778e-09
1.50603e-09
2.02949e-09
2.11276e-09
1.69163e-09
1.91178e-09
1.11221e-09
3.73325e-09
2.66121e-09
6.17983e-10
6.45013e-09
8.38067e-09
5.89913e-09
4.36886e-09
5.50955e-09
1.96666e-09
5.30222e-09
1.02745e-09
5.17947e-09
6.8267e-10
5.09286e-09
5.10049e-10
5.02605e-09
4.00682e-10
4.97265e-09
3.22383e-10
4.92888e-09
2.65474e-10
4.89239e-09
2.22066e-10
4.86146e-09
1.88774e-10
4.83495e-09
1.62203e-10
4.81196e-09
1.40926e-10
4.79188e-09
1.23372e-10
4.77417e-09
1.08927e-10
4.75843e-09
9.69898e-11
4.74427e-09
8.73815e-11
4.73136e-09
7.99066e-11
4.71938e-09
7.44614e-11
4.70803e-09
7.08507e-11
4.69707e-09
6.88007e-11
4.68631e-09
6.79207e-11
4.67562e-09
6.77747e-11
4.66495e-09
6.78986e-11
4.65432e-09
6.78866e-11
4.64379e-09
6.74245e-11
4.63343e-09
6.63343e-11
4.62335e-09
6.46049e-11
4.61363e-09
6.23657e-11
4.6043e-09
5.98627e-11
4.59536e-09
5.74253e-11
4.58675e-09
5.54317e-11
4.57836e-09
5.42732e-11
4.57001e-09
5.43272e-11
4.56148e-09
5.59412e-11
4.55249e-09
5.94249e-11
4.54275e-09
6.50475e-11
4.53189e-09
7.30426e-11
4.51954e-09
8.36114e-11
4.50531e-09
9.6938e-11
4.48876e-09
1.13186e-10
4.46944e-09
1.3253e-10
4.44688e-09
1.55126e-10
4.42058e-09
1.81183e-10
4.39001e-09
2.10874e-10
4.35462e-09
2.44506e-10
4.3138e-09
2.82251e-10
4.2669e-09
3.2464e-10
4.21325e-09
3.71752e-10
4.15203e-09
4.24647e-10
4.08247e-09
4.82942e-10
4.00348e-09
5.4913e-10
3.91422e-09
6.21153e-10
3.81299e-09
7.056e-10
3.69908e-09
7.94789e-10
3.56927e-09
9.07861e-10
3.42369e-09
1.01856e-09
3.25492e-09
1.1871e-09
3.06683e-09
1.32347e-09
2.83908e-09
1.62421e-09
2.59e-09
1.75512e-09
2.26013e-09
2.44263e-09
1.91402e-09
2.25789e-09
1.35765e-09
4.28962e-09
3.15361e-09
8.65257e-10
6.83441e-09
8.6013e-09
6.31444e-09
4.88883e-09
5.89256e-09
2.38855e-09
5.65397e-09
1.26604e-09
5.51518e-09
8.2146e-10
5.41966e-09
6.05577e-10
5.3469e-09
4.73437e-10
5.28907e-09
3.80213e-10
5.24178e-09
3.1276e-10
5.20244e-09
2.61414e-10
5.16914e-09
2.22075e-10
5.14062e-09
1.90716e-10
5.11592e-09
1.65624e-10
5.09436e-09
1.44941e-10
5.07536e-09
1.27927e-10
5.05848e-09
1.1387e-10
5.04331e-09
1.02546e-10
5.0295e-09
9.37214e-11
5.01669e-09
8.72683e-11
5.00458e-09
8.29582e-11
4.99291e-09
8.04719e-11
4.98147e-09
7.9357e-11
4.97014e-09
7.91094e-11
4.95885e-09
7.91907e-11
4.9476e-09
7.91293e-11
4.93647e-09
7.85595e-11
4.92553e-09
7.72721e-11
4.91489e-09
7.52497e-11
4.90461e-09
7.26374e-11
4.89476e-09
6.97155e-11
4.88533e-09
6.68618e-11
4.87625e-09
6.45108e-11
4.86741e-09
6.31138e-11
4.85863e-09
6.31064e-11
4.84968e-09
6.489e-11
4.84028e-09
6.88232e-11
4.83011e-09
7.52168e-11
4.81881e-09
8.43411e-11
4.80599e-09
9.64282e-11
4.79124e-09
1.1169e-10
4.77411e-09
1.30315e-10
4.75414e-09
1.525e-10
4.73084e-09
1.78427e-10
4.7037e-09
2.08331e-10
4.67216e-09
2.4241e-10
4.63566e-09
2.81011e-10
4.59357e-09
3.24332e-10
4.54524e-09
3.72975e-10
4.48996e-09
4.2703e-10
4.42691e-09
4.87702e-10
4.35529e-09
5.54555e-10
4.274e-09
6.30423e-10
4.18218e-09
7.12974e-10
4.0781e-09
8.09683e-10
3.96102e-09
9.11863e-10
3.82771e-09
1.04118e-09
3.67827e-09
1.168e-09
3.5052e-09
1.36016e-09
3.31238e-09
1.51628e-09
3.08045e-09
1.85614e-09
2.82595e-09
2.00962e-09
2.49467e-09
2.77391e-09
2.14191e-09
2.61066e-09
1.60832e-09
4.82321e-09
3.64038e-09
1.12155e-09
7.19898e-09
8.73813e-09
6.72982e-09
5.358e-09
6.28877e-09
2.82959e-09
6.01807e-09
1.53674e-09
5.86017e-09
9.79367e-10
5.75443e-09
7.11318e-10
5.675e-09
5.52861e-10
5.61228e-09
4.4293e-10
5.56117e-09
3.63871e-10
5.51873e-09
3.03855e-10
5.48287e-09
2.57936e-10
5.4522e-09
2.21385e-10
5.42566e-09
1.92163e-10
5.40251e-09
1.68097e-10
5.38212e-09
1.48311e-10
5.36403e-09
1.31966e-10
5.34778e-09
1.18789e-10
5.333e-09
1.08501e-10
5.31932e-09
1.0095e-10
5.30641e-09
9.58684e-11
5.29399e-09
9.28909e-11
5.28185e-09
9.15e-11
5.26984e-09
9.11207e-11
5.25789e-09
9.11372e-11
5.24601e-09
9.10087e-11
5.23426e-09
9.0315e-11
5.22272e-09
8.88137e-11
5.21149e-09
8.64794e-11
5.20065e-09
8.34725e-11
5.19026e-09
8.01076e-11
5.18031e-09
7.68117e-11
5.17074e-09
7.40777e-11
5.16144e-09
7.24183e-11
5.15222e-09
7.23299e-11
5.14284e-09
7.427e-11
5.13301e-09
7.86478e-11
5.12241e-09
8.5818e-11
5.11066e-09
9.60889e-11
5.09737e-09
1.09725e-10
5.08209e-09
1.26966e-10
5.06438e-09
1.48025e-10
5.04375e-09
1.73127e-10
5.0197e-09
2.02474e-10
4.9917e-09
2.36331e-10
4.95919e-09
2.7492e-10
4.92157e-09
3.1863e-10
4.87823e-09
3.67682e-10
4.82845e-09
4.22751e-10
4.77154e-09
4.83938e-10
4.70665e-09
5.52594e-10
4.63297e-09
6.2823e-10
4.54937e-09
7.14023e-10
4.45498e-09
8.07365e-10
4.34804e-09
9.16625e-10
4.2278e-09
1.03211e-09
4.09096e-09
1.17802e-09
3.93762e-09
1.32133e-09
3.76032e-09
1.53747e-09
3.56281e-09
1.71379e-09
3.32697e-09
2.09199e-09
3.06752e-09
2.26906e-09
2.73494e-09
3.1065e-09
2.37669e-09
2.9689e-09
1.86444e-09
5.33546e-09
4.1206e-09
1.38421e-09
7.54967e-09
8.81623e-09
7.14447e-09
5.7632e-09
6.69932e-09
3.27475e-09
6.3975e-09
1.83856e-09
6.21736e-09
1.1595e-09
6.09966e-09
8.29023e-10
6.0127e-09
6.39818e-10
5.94456e-09
5.11066e-10
5.88926e-09
4.19175e-10
5.84345e-09
3.49668e-10
5.80481e-09
2.96576e-10
5.77181e-09
2.54385e-10
5.74328e-09
2.20687e-10
5.71842e-09
1.92962e-10
5.69655e-09
1.70181e-10
5.67715e-09
1.51366e-10
5.65975e-09
1.36186e-10
5.64394e-09
1.24314e-10
5.62932e-09
1.15564e-10
5.61556e-09
1.09633e-10
5.60235e-09
1.06102e-10
5.58946e-09
1.04389e-10
5.57674e-09
1.03844e-10
5.5641e-09
1.03769e-10
5.55156e-09
1.03553e-10
5.53916e-09
1.02717e-10
5.52699e-09
1.00983e-10
5.51515e-09
9.83167e-11
5.50373e-09
9.48923e-11
5.49278e-09
9.10593e-11
5.4823e-09
8.72946e-11
5.47222e-09
8.41507e-11
5.46244e-09
8.22043e-11
5.45275e-09
8.20141e-11
5.44293e-09
8.40965e-11
5.43266e-09
8.89131e-11
5.42161e-09
9.68646e-11
5.40941e-09
1.08298e-10
5.39562e-09
1.23512e-10
5.37981e-09
1.42777e-10
5.3615e-09
1.6633e-10
5.34021e-09
1.94423e-10
5.3154e-09
2.27281e-10
5.28653e-09
2.65198e-10
5.25303e-09
3.08419e-10
5.21429e-09
3.57378e-10
5.16965e-09
4.12318e-10
5.11841e-09
4.73987e-10
5.05986e-09
5.42497e-10
4.9931e-09
6.19346e-10
4.91734e-09
7.03993e-10
4.8314e-09
7.9996e-10
4.73441e-09
9.04361e-10
4.62456e-09
1.02647e-09
4.50109e-09
1.15557e-09
4.36064e-09
1.31847e-09
4.2033e-09
1.47867e-09
4.02192e-09
1.71885e-09
3.81994e-09
1.91577e-09
3.58024e-09
2.3317e-09
3.31629e-09
2.53301e-09
2.98249e-09
3.4403e-09
2.61959e-09
3.33179e-09
2.12661e-09
5.82845e-09
4.59464e-09
1.65258e-09
7.89584e-09
8.85173e-09
7.5606e-09
6.09843e-09
7.12435e-09
3.711e-09
6.79454e-09
2.16836e-09
6.58953e-09
1.36451e-09
6.45747e-09
9.61084e-10
6.36198e-09
7.35309e-10
6.2878e-09
5.85247e-10
6.22787e-09
4.79103e-10
6.17837e-09
3.99172e-10
6.1367e-09
3.38243e-10
6.10117e-09
2.89918e-10
6.0705e-09
2.51362e-10
6.04378e-09
2.19675e-10
6.02031e-09
1.93656e-10
5.9995e-09
1.72172e-10
5.98086e-09
1.54826e-10
5.96394e-09
1.41235e-10
5.94833e-09
1.31177e-10
5.93365e-09
1.24309e-10
5.9196e-09
1.20158e-10
5.90592e-09
1.18069e-10
5.89244e-09
1.17318e-10
5.87909e-09
1.17123e-10
5.86585e-09
1.16794e-10
5.85277e-09
1.15794e-10
5.83994e-09
1.13808e-10
5.82747e-09
1.10787e-10
5.81544e-09
1.06921e-10
5.80391e-09
1.02594e-10
5.79287e-09
9.83321e-11
5.78227e-09
9.47505e-11
5.77199e-09
9.2491e-11
5.76182e-09
9.21774e-11
5.75153e-09
9.43868e-11
5.74081e-09
9.96356e-11
5.7293e-09
1.08372e-10
5.71662e-09
1.20985e-10
5.70232e-09
1.37807e-10
5.68596e-09
1.59138e-10
5.66705e-09
1.85245e-10
5.64506e-09
2.16404e-10
5.61948e-09
2.52863e-10
5.58973e-09
2.94948e-10
5.55522e-09
3.42928e-10
5.51532e-09
3.97278e-10
5.46937e-09
4.58265e-10
5.41665e-09
5.26713e-10
5.35641e-09
6.0274e-10
5.28775e-09
6.87998e-10
5.20986e-09
7.81887e-10
5.12153e-09
8.88285e-10
5.02187e-09
1.00402e-09
4.90905e-09
1.1393e-09
4.78226e-09
1.28236e-09
4.63812e-09
1.4626e-09
4.47675e-09
1.64004e-09
4.29139e-09
1.9042e-09
4.08517e-09
2.12199e-09
3.84163e-09
2.57524e-09
3.57337e-09
2.80127e-09
3.23844e-09
3.77523e-09
2.87156e-09
3.69867e-09
2.39541e-09
6.3046e-09
5.06372e-09
1.92633e-09
8.2435e-09
8.85523e-09
7.97867e-09
6.36326e-09
7.56272e-09
4.12695e-09
7.21066e-09
2.52042e-09
6.97929e-09
1.59589e-09
6.83012e-09
1.11025e-09
6.72464e-09
8.40787e-10
6.64368e-09
6.66207e-10
6.57863e-09
5.44155e-10
6.52506e-09
4.52735e-10
6.48008e-09
3.83222e-10
6.44179e-09
3.28212e-10
6.40878e-09
2.84376e-10
6.38006e-09
2.48392e-10
6.35485e-09
2.18869e-10
6.33252e-09
1.94497e-10
6.31254e-09
1.74807e-10
6.29442e-09
1.5935e-10
6.27774e-09
1.47865e-10
6.26208e-09
1.39964e-10
6.24712e-09
1.35115e-10
6.2326e-09
1.32592e-10
6.21833e-09
1.3159e-10
6.20421e-09
1.31238e-10
6.19024e-09
1.30769e-10
6.17645e-09
1.29581e-10
6.16294e-09
1.27318e-10
6.14981e-09
1.23919e-10
6.13714e-09
1.19586e-10
6.125e-09
1.14736e-10
6.11339e-09
1.09948e-10
6.10224e-09
1.05899e-10
6.09143e-09
1.033e-10
6.08077e-09
1.0284e-10
6.06999e-09
1.0516e-10
6.0588e-09
1.10833e-10
6.04681e-09
1.20358e-10
6.03363e-09
1.34166e-10
6.01881e-09
1.52624e-10
6.00188e-09
1.76068e-10
5.98234e-09
2.04788e-10
5.95965e-09
2.3909e-10
5.93327e-09
2.79244e-10
5.90261e-09
3.25608e-10
5.86707e-09
3.78474e-10
5.82598e-09
4.38361e-10
5.77869e-09
5.05559e-10
5.72444e-09
5.80967e-10
5.66246e-09
6.64712e-10
5.59186e-09
7.58598e-10
5.51178e-09
8.61971e-10
5.421e-09
9.79066e-10
5.31859e-09
1.10643e-09
5.20268e-09
1.25521e-09
5.07244e-09
1.41261e-09
4.92459e-09
1.61045e-09
4.75927e-09
1.80536e-09
4.56996e-09
2.09352e-09
4.35956e-09
2.33239e-09
4.11219e-09
2.82261e-09
3.83972e-09
3.07373e-09
3.50367e-09
4.11128e-09
3.13343e-09
4.06891e-09
2.67166e-09
6.76636e-09
5.5293e-09
2.20608e-09
8.59572e-09
8.83473e-09
8.39741e-09
6.56157e-09
8.01241e-09
4.51195e-09
7.64673e-09
2.8861e-09
7.38897e-09
1.85365e-09
7.22003e-09
1.27919e-09
7.10249e-09
9.58325e-10
7.01376e-09
7.54936e-10
6.943e-09
6.14911e-10
6.88496e-09
5.1078e-10
6.83634e-09
4.3184e-10
6.79502e-09
3.69528e-10
6.75946e-09
3.19942e-10
6.72856e-09
2.79292e-10
6.70146e-09
2.4597e-10
6.67748e-09
2.18472e-10
6.65605e-09
1.96241e-10
6.63664e-09
1.78757e-10
6.61879e-09
1.65713e-10
6.60209e-09
1.56672e-10
6.58616e-09
1.51039e-10
6.57074e-09
1.48015e-10
6.55562e-09
1.4671e-10
6.5407e-09
1.46162e-10
6.52595e-09
1.45519e-10
6.51141e-09
1.44115e-10
6.49718e-09
1.41548e-10
6.48336e-09
1.37745e-10
6.47003e-09
1.32916e-10
6.45725e-09
1.27513e-10
6.44503e-09
1.22168e-10
6.43331e-09
1.17622e-10
6.42196e-09
1.14653e-10
6.41077e-09
1.14023e-10
6.3995e-09
1.16436e-10
6.3878e-09
1.22526e-10
6.37532e-09
1.32842e-10
6.36163e-09
1.47859e-10
6.34627e-09
1.67985e-10
6.32875e-09
1.93585e-10
6.30856e-09
2.24981e-10
6.28514e-09
2.62503e-10
6.25794e-09
3.06449e-10
6.22634e-09
3.57205e-10
6.18973e-09
4.15088e-10
6.14743e-09
4.80662e-10
6.09875e-09
5.54239e-10
6.04292e-09
6.36795e-10
5.97916e-09
7.28464e-10
5.90656e-09
8.31208e-10
5.82421e-09
9.44316e-10
5.73089e-09
1.07239e-09
5.62563e-09
1.2117e-09
5.50651e-09
1.37433e-09
5.37273e-09
1.54639e-09
5.2212e-09
1.76198e-09
5.052e-09
1.97456e-09
4.85867e-09
2.28684e-09
4.64405e-09
2.54702e-09
4.39284e-09
3.07382e-09
4.1162e-09
3.35037e-09
3.77901e-09
4.44847e-09
3.40593e-09
4.44198e-09
2.95637e-09
7.21592e-09
5.99278e-09
2.4929e-09
8.95522e-09
8.796e-09
8.81759e-09
6.6992e-09
8.47254e-09
4.857e-09
8.10306e-09
3.25558e-09
7.82037e-09
2.13634e-09
7.62955e-09
1.47001e-09
7.49759e-09
1.09029e-09
7.39964e-09
8.52879e-10
7.32243e-09
6.92123e-10
7.25942e-09
5.73795e-10
7.20679e-09
4.84471e-10
7.16215e-09
4.14164e-10
7.12379e-09
3.58303e-10
7.09051e-09
3.12576e-10
7.06135e-09
2.75128e-10
7.03558e-09
2.4424e-10
7.01257e-09
2.19252e-10
6.99176e-09
1.99564e-10
6.97266e-09
1.84815e-10
6.95482e-09
1.74515e-10
6.93785e-09
1.68004e-10
6.92146e-09
1.64403e-10
6.90544e-09
1.62736e-10
6.88966e-09
1.61944e-10
6.87409e-09
1.61089e-10
6.85877e-09
1.59435e-10
6.84378e-09
1.56536e-10
6.82922e-09
1.52298e-10
6.8152e-09
1.46942e-10
6.80176e-09
1.40955e-10
6.7889e-09
1.3502e-10
6.77658e-09
1.29943e-10
6.76466e-09
1.26575e-10
6.75293e-09
1.25749e-10
6.74113e-09
1.28237e-10
6.72893e-09
1.34734e-10
6.71592e-09
1.45843e-10
6.7017e-09
1.62086e-10
6.68577e-09
1.83909e-10
6.66765e-09
2.11713e-10
6.64678e-09
2.45846e-10
6.62261e-09
2.8667e-10
6.59456e-09
3.34505e-10
6.56199e-09
3.8977e-10
6.52427e-09
4.52806e-10
6.48071e-09
5.24222e-10
6.4306e-09
6.04352e-10
6.37315e-09
6.9425e-10
6.30755e-09
7.94059e-10
6.23286e-09
9.05898e-10
6.14817e-09
1.02901e-09
6.05221e-09
1.16835e-09
5.94396e-09
1.31994e-09
5.82155e-09
1.49674e-09
5.68424e-09
1.6837e-09
5.52902e-09
1.9172e-09
5.35588e-09
2.1477e-09
5.15847e-09
2.48425e-09
4.93954e-09
2.76594e-09
4.68443e-09
3.32893e-09
4.40362e-09
3.63118e-09
4.06524e-09
4.78686e-09
3.68979e-09
4.81743e-09
3.25064e-09
7.65506e-09
6.45521e-09
2.78821e-09
9.32245e-09
8.7449e-09
9.23894e-09
6.78271e-09
8.94222e-09
5.15372e-09
8.5789e-09
3.6189e-09
8.27484e-09
2.44041e-09
8.06085e-09
1.684e-09
7.91216e-09
1.23898e-09
7.80318e-09
9.61866e-10
7.7184e-09
7.76896e-10
7.64979e-09
6.42414e-10
7.59271e-09
5.41541e-10
7.54442e-09
4.62457e-10
7.50299e-09
3.99732e-10
7.4671e-09
3.48469e-10
7.43569e-09
3.06537e-10
7.40796e-09
2.71966e-10
7.38323e-09
2.43982e-10
7.3609e-09
2.21894e-10
7.34044e-09
2.05278e-10
7.32137e-09
1.93589e-10
7.30328e-09
1.86092e-10
7.28585e-09
1.81828e-10
7.26886e-09
1.79732e-10
7.25216e-09
1.78642e-10
7.23572e-09
1.7753e-10
7.21956e-09
1.75589e-10
7.20378e-09
1.72322e-10
7.18846e-09
1.67616e-10
7.1737e-09
1.617e-10
7.15956e-09
1.55093e-10
7.14605e-09
1.48532e-10
7.1331e-09
1.4289e-10
7.12059e-09
1.39092e-10
7.10829e-09
1.38042e-10
7.09594e-09
1.40586e-10
7.0832e-09
1.4748e-10
7.06966e-09
1.59384e-10
7.05488e-09
1.76868e-10
7.03837e-09
2.00419e-10
7.01961e-09
2.30473e-10
6.99804e-09
2.67409e-10
6.9731e-09
3.11617e-10
6.94416e-09
3.63443e-10
6.91059e-09
4.23338e-10
6.87173e-09
4.91668e-10
6.82686e-09
5.69086e-10
6.77527e-09
6.55949e-10
6.71613e-09
7.53391e-10
6.64862e-09
8.61563e-10
6.57177e-09
9.82749e-10
6.48464e-09
1.11614e-09
6.38591e-09
1.26708e-09
6.27458e-09
1.43127e-09
6.14885e-09
1.62247e-09
6.00801e-09
1.82454e-09
5.84901e-09
2.0762e-09
5.67184e-09
2.32487e-09
5.47024e-09
2.68585e-09
5.2469e-09
2.98929e-09
4.98781e-09
3.58803e-09
4.7028e-09
3.91618e-09
4.36314e-09
5.12652e-09
3.98569e-09
5.19489e-09
3.55557e-09
8.08518e-09
6.91739e-09
3.09339e-09
9.69435e-09
8.6909e-09
9.65654e-09
6.82052e-09
9.41766e-09
5.39259e-09
9.07187e-09
3.96469e-09
8.75329e-09
2.75899e-09
8.51588e-09
1.9214e-09
8.3484e-09
1.40646e-09
8.22643e-09
1.08383e-09
8.13266e-09
8.70663e-10
8.0575e-09
7.17575e-10
7.99542e-09
6.03627e-10
7.94308e-09
5.14794e-10
7.89827e-09
4.44542e-10
7.85951e-09
3.87231e-10
7.82563e-09
3.40413e-10
7.79576e-09
3.01833e-10
7.76916e-09
2.70589e-10
7.74517e-09
2.45885e-10
7.72322e-09
2.27223e-10
7.70281e-09
2.13999e-10
7.68351e-09
2.05396e-10
7.66496e-09
2.00373e-10
7.64693e-09
1.9777e-10
7.62925e-09
1.96319e-10
7.61188e-09
1.94899e-10
7.59484e-09
1.92626e-10
7.57821e-09
1.88952e-10
7.56209e-09
1.83741e-10
7.54656e-09
1.77227e-10
7.53169e-09
1.69962e-10
7.51749e-09
1.62737e-10
7.50389e-09
1.56493e-10
7.49075e-09
1.52229e-10
7.47786e-09
1.50928e-10
7.46494e-09
1.53505e-10
7.45164e-09
1.60786e-10
7.43753e-09
1.73486e-10
7.42217e-09
1.92228e-10
7.40505e-09
2.17539e-10
7.38564e-09
2.49891e-10
7.36335e-09
2.89697e-10
7.33759e-09
3.37375e-10
7.30774e-09
3.93297e-10
7.27313e-09
4.57947e-10
7.23308e-09
5.31717e-10
7.18686e-09
6.15302e-10
7.13372e-09
7.09088e-10
7.07283e-09
8.14283e-10
7.00334e-09
9.31055e-10
6.92424e-09
1.06185e-09
6.83455e-09
1.20582e-09
6.73295e-09
1.36869e-09
6.61848e-09
1.54574e-09
6.48941e-09
1.75153e-09
6.34497e-09
1.96898e-09
6.1821e-09
2.23906e-09
6.00077e-09
2.5062e-09
5.79488e-09
2.89174e-09
5.56699e-09
3.21718e-09
5.30383e-09
3.85119e-09
5.01457e-09
4.20544e-09
4.67354e-09
5.46755e-09
4.29434e-09
5.57408e-09
3.87221e-09
8.50731e-09
7.37988e-09
3.40972e-09
1.00745e-08
8.64046e-09
1.00722e-08
6.82277e-09
9.89532e-09
5.56948e-09
9.57938e-09
4.28064e-09
9.25577e-09
3.0826e-09
8.99629e-09
2.18088e-09
8.80836e-09
1.59439e-09
8.67148e-09
1.22071e-09
8.56717e-09
9.74974e-10
8.48429e-09
8.00453e-10
8.41634e-09
6.71579e-10
8.3594e-09
5.71728e-10
8.31085e-09
4.93095e-10
8.26893e-09
4.29154e-10
8.23234e-09
3.77e-10
8.20012e-09
3.34051e-10
8.17146e-09
2.99254e-10
8.14565e-09
2.71692e-10
8.12209e-09
2.50785e-10
8.10022e-09
2.35862e-10
8.0796e-09
2.26018e-10
8.05985e-09
2.20128e-10
8.04069e-09
2.16931e-10
8.02196e-09
2.15046e-10
8.0036e-09
2.13257e-10
7.98562e-09
2.10602e-10
7.9681e-09
2.06476e-10
7.95112e-09
2.00716e-10
7.93479e-09
1.93562e-10
7.91915e-09
1.85597e-10
7.90422e-09
1.77667e-10
7.88994e-09
1.70781e-10
7.87615e-09
1.66016e-10
7.86264e-09
1.64432e-10
7.84913e-09
1.67021e-10
7.83524e-09
1.74676e-10
7.82055e-09
1.88175e-10
7.80459e-09
2.08189e-10
7.78684e-09
2.35291e-10
7.76673e-09
2.69993e-10
7.74369e-09
3.12738e-10
7.71709e-09
3.63974e-10
7.68629e-09
4.24101e-10
7.6506e-09
4.93638e-10
7.60932e-09
5.72998e-10
7.56169e-09
6.62925e-10
7.50695e-09
7.63829e-10
7.44424e-09
8.77e-10
7.37267e-09
1.00262e-09
7.29121e-09
1.14332e-09
7.19885e-09
1.29818e-09
7.09432e-09
1.47322e-09
6.97669e-09
1.66337e-09
6.84421e-09
1.88401e-09
6.69607e-09
2.11713e-09
6.52921e-09
2.40592e-09
6.34359e-09
2.69183e-09
6.13326e-09
3.10206e-09
5.9007e-09
3.44974e-09
5.63335e-09
4.11854e-09
5.33976e-09
4.49904e-09
4.99725e-09
5.81005e-09
4.61648e-09
5.95486e-09
4.20154e-09
8.92225e-09
7.84301e-09
3.73841e-09
1.04684e-08
8.59505e-09
1.04917e-08
6.79942e-09
1.03754e-08
5.68579e-09
1.00997e-08
4.55637e-09
9.78076e-09
3.4015e-09
9.50329e-09
2.45835e-09
9.29408e-09
1.80361e-09
9.14037e-09
1.37442e-09
9.02387e-09
1.09147e-09
8.93203e-09
8.92296e-10
8.85721e-09
7.46402e-10
8.79489e-09
6.34046e-10
8.74204e-09
5.45946e-10
8.69658e-09
4.74614e-10
8.657e-09
4.16579e-10
8.6222e-09
3.68854e-10
8.59127e-09
3.30177e-10
8.56348e-09
2.9949e-10
8.53815e-09
2.76115e-10
8.51469e-09
2.59314e-10
8.49264e-09
2.48077e-10
8.47157e-09
2.41196e-10
8.45119e-09
2.37306e-10
8.43134e-09
2.34903e-10
8.41192e-09
2.32675e-10
8.39294e-09
2.29578e-10
8.37447e-09
2.24947e-10
8.3566e-09
2.1859e-10
8.33941e-09
2.10749e-10
8.32297e-09
2.02038e-10
8.30728e-09
1.93358e-10
8.29227e-09
1.85787e-10
8.27781e-09
1.80481e-10
8.26366e-09
1.78582e-10
8.24952e-09
1.81159e-10
8.23502e-09
1.89175e-10
8.21972e-09
2.03472e-10
8.20314e-09
2.24775e-10
8.18473e-09
2.53704e-10
8.16391e-09
2.90807e-10
8.14009e-09
3.36562e-10
8.11261e-09
3.91449e-10
8.08082e-09
4.55895e-10
8.044e-09
5.30454e-10
8.00144e-09
6.15563e-10
7.95235e-09
7.12013e-10
7.89594e-09
8.20241e-10
7.83132e-09
9.41621e-10
7.75758e-09
1.07636e-09
7.67365e-09
1.22725e-09
7.57855e-09
1.39327e-09
7.47106e-09
1.58072e-09
7.35022e-09
1.78421e-09
7.21423e-09
2.02e-09