/*--------------------------------*- C++ -*----------------------------------*\
| =========                 |                                                 |
| \\      /  F ield         | OpenFOAM: The Open Source CFD Toolbox           |
|  \\    /   O peration     | Version:  v1906                                 |
|   \\  /    A nd           | Web:      www.OpenFOAM.com                      |
|    \\/     M anipulation  |                                                 |
\*---------------------------------------------------------------------------*/
FoamFile
{
    version     2.0;
    format      ascii;
    class       volVectorField;
    location    "0.1";
    object      U;
}
// * * * * * * * * * * * * * * * * * * * * * * * * * * * * * * * * * * * * * //

dimensions      [0 1 -1 0 0 0 0];


internalField   nonuniform List<vector> 
80000
(
(4.90303 0.00476562 0)
(3.6856 0.000649768 0)
(3.51621 9.45325e-05 0)
(3.40729 0.000102292 0)
(3.31168 8.83841e-05 0)
(3.24075 6.94018e-05 0)
(3.18459 5.66973e-05 0)
(3.14061 4.79988e-05 0)
(3.10394 4.15837e-05 0)
(3.07377 3.66195e-05 0)
(3.04791 3.27164e-05 0)
(3.02592 2.95488e-05 0)
(3.00673 2.69587e-05 0)
(2.99003 2.47806e-05 0)
(2.97527 2.29613e-05 0)
(2.9622 2.14645e-05 0)
(2.95045 2.03162e-05 0)
(2.93978 1.95457e-05 0)
(2.92989 1.91949e-05 0)
(2.92053 1.92799e-05 0)
(2.91147 1.97827e-05 0)
(2.90252 2.06365e-05 0)
(2.89357 2.17397e-05 0)
(2.88455 2.29581e-05 0)
(2.87548 2.41578e-05 0)
(2.86639 2.52043e-05 0)
(2.8574 2.60061e-05 0)
(2.84859 2.6541e-05 0)
(2.84005 2.6837e-05 0)
(2.83184 2.69899e-05 0)
(2.82397 2.71587e-05 0)
(2.8164 2.75567e-05 0)
(2.80902 2.84408e-05 0)
(2.80168 3.01019e-05 0)
(2.79418 3.28593e-05 0)
(2.78625 3.70574e-05 0)
(2.77761 4.30645e-05 0)
(2.76792 5.12754e-05 0)
(2.75682 6.21143e-05 0)
(2.74392 7.60456e-05 0)
(2.72881 9.35752e-05 0)
(2.71106 0.000115274 0)
(2.69019 0.000141765 0)
(2.66572 0.00017378 0)
(2.63713 0.000212104 0)
(2.60388 0.000257715 0)
(2.56533 0.000311572 0)
(2.52094 0.00037507 0)
(2.46987 0.000449284 0)
(2.41164 0.000536388 0)
(2.34493 0.000637198 0)
(2.26972 0.000755997 0)
(2.1834 0.00089143 0)
(2.08763 0.00105381 0)
(1.97602 0.00123341 0)
(1.85604 0.00146083 0)
(1.70947 0.00169409 0)
(1.56317 0.00205686 0)
(1.35885 0.0024426 0)
(1.18211 0.00308741 0)
(0.855715 0.00330019 0)
(0.70031 0.00441879 0)
(0.106227 0.00201458 0)
(0.333564 0.00165843 0)
(-0.732536 -0.000604064 0)
(6.29403 0.00881753 0)
(5.02087 0.00199341 0)
(4.71311 0.000462487 0)
(4.57559 0.00032794 0)
(4.46703 0.000277129 0)
(4.38417 0.000224107 0)
(4.31785 0.000184858 0)
(4.26583 0.000156429 0)
(4.2226 0.000135495 0)
(4.18704 0.000119226 0)
(4.15663 0.00010652 0)
(4.13078 9.61674e-05 0)
(4.10824 8.77389e-05 0)
(4.08864 8.06391e-05 0)
(4.07133 7.47245e-05 0)
(4.056 6.98434e-05 0)
(4.04224 6.60873e-05 0)
(4.02975 6.35333e-05 0)
(4.01819 6.23172e-05 0)
(4.00727 6.24861e-05 0)
(3.99673 6.3989e-05 0)
(3.98634 6.6618e-05 0)
(3.97598 7.00561e-05 0)
(3.96556 7.38828e-05 0)
(3.95508 7.76706e-05 0)
(3.94461 8.10064e-05 0)
(3.93424 8.35955e-05 0)
(3.92408 8.5346e-05 0)
(3.91423 8.63454e-05 0)
(3.90476 8.6888e-05 0)
(3.89567 8.74652e-05 0)
(3.88693 8.87422e-05 0)
(3.87842 9.15253e-05 0)
(3.86998 9.67314e-05 0)
(3.86137 0.00010537 0)
(3.85231 0.000118532 0)
(3.84248 0.000137388 0)
(3.83149 0.000163197 0)
(3.81895 0.000197314 0)
(3.80441 0.000241231 0)
(3.78742 0.000296577 0)
(3.76748 0.000365204 0)
(3.74407 0.000449144 0)
(3.71664 0.000550813 0)
(3.6846 0.000672807 0)
(3.64734 0.00081845 0)
(3.60414 0.000990993 0)
(3.55437 0.00119536 0)
(3.49707 0.0014353 0)
(3.43166 0.00171894 0)
(3.35666 0.00204921 0)
(3.27191 0.00244247 0)
(3.17453 0.00289472 0)
(3.06601 0.00344596 0)
(2.93945 0.00406281 0)
(2.80211 0.00486336 0)
(2.63474 0.00569926 0)
(2.46405 0.00699164 0)
(2.23065 0.0082395 0)
(2.02799 0.0108176 0)
(1.66423 0.0119659 0)
(1.46323 0.0176082 0)
(0.760996 0.0122077 0)
(0.852892 0.0245826 0)
(-0.807368 0.0186627 0)
(6.85621 0.0127453 0)
(5.65146 0.00354684 0)
(5.26854 0.000969968 0)
(5.10768 0.000609178 0)
(4.99182 0.00049973 0)
(4.90378 0.000406757 0)
(4.83308 0.000336643 0)
(4.77754 0.000284792 0)
(4.73145 0.000246545 0)
(4.69354 0.000216804 0)
(4.66116 0.000193624 0)
(4.63363 0.000174733 0)
(4.60966 0.000159373 0)
(4.5888 0.000146437 0)
(4.5704 0.000135667 0)
(4.5541 0.00012677 0)
(4.53948 0.000119906 0)
(4.52622 0.000115203 0)
(4.51395 0.000112902 0)
(4.50238 0.000113086 0)
(4.49121 0.000115668 0)
(4.48023 0.000120281 0)
(4.46929 0.000126363 0)
(4.4583 0.000133166 0)
(4.44726 0.000139922 0)
(4.43623 0.0001459 0)
(4.42532 0.000150566 0)
(4.41463 0.000153738 0)
(4.40427 0.000155564 0)
(4.3943 0.000156556 0)
(4.38474 0.000157578 0)
(4.37555 0.000159802 0)
(4.36661 0.000164656 0)
(4.35776 0.000173766 0)
(4.34874 0.000188924 0)
(4.33928 0.00021207 0)
(4.32903 0.000245283 0)
(4.3176 0.000290799 0)
(4.30458 0.000351028 0)
(4.28952 0.000428615 0)
(4.27194 0.000526454 0)
(4.25132 0.000647832 0)
(4.22713 0.000796354 0)
(4.19881 0.000976314 0)
(4.16574 0.00119232 0)
(4.1273 0.0014503 0)
(4.08275 0.00175605 0)
(4.03144 0.00211836 0)
(3.97239 0.00254402 0)
(3.905 0.00304761 0)
(3.82778 0.00363458 0)
(3.7405 0.00433426 0)
(3.64034 0.00514052 0)
(3.52861 0.00612476 0)
(3.39865 0.00723058 0)
(3.25718 0.00866701 0)
(3.08581 0.0101806 0)
(2.90948 0.0124962 0)
(2.6723 0.0146458 0)
(2.46225 0.0190729 0)
(2.09728 0.0212684 0)
(1.88222 0.0318048 0)
(1.18302 0.024974 0)
(1.18474 0.0546059 0)
(-0.559912 0.0337351 0)
(7.23799 0.0157456 0)
(6.09332 0.00513777 0)
(5.64961 0.00158988 0)
(5.46271 0.000935202 0)
(5.33846 0.000744339 0)
(5.24583 0.000606115 0)
(5.17156 0.000502564 0)
(5.11313 0.000425091 0)
(5.06472 0.000367847 0)
(5.0249 0.000323298 0)
(4.99093 0.000288628 0)
(4.96206 0.000260371 0)
(4.93694 0.000237419 0)
(4.91509 0.000218093 0)
(4.89581 0.000202015 0)
(4.87875 0.000188724 0)
(4.86345 0.000178453 0)
(4.84958 0.000171378 0)
(4.83676 0.000167852 0)
(4.82468 0.000167994 0)
(4.81304 0.000171677 0)
(4.80161 0.000178363 0)
(4.79023 0.00018723 0)
(4.77882 0.00019718 0)
(4.76737 0.00020708 0)
(4.75594 0.00021586 0)
(4.74463 0.000222732 0)
(4.73355 0.000227411 0)
(4.72282 0.000230108 0)
(4.7125 0.000231565 0)
(4.7026 0.000233035 0)
(4.69309 0.00023623 0)
(4.68386 0.000243236 0)
(4.67472 0.000256431 0)
(4.66544 0.000278438 0)
(4.65572 0.000312099 0)
(4.64522 0.000360456 0)
(4.63354 0.000426784 0)
(4.62027 0.000514607 0)
(4.60493 0.000627795 0)
(4.58705 0.000770574 0)
(4.56611 0.000947745 0)
(4.54156 0.00116457 0)
(4.51283 0.00142731 0)
(4.4793 0.00174269 0)
(4.44034 0.00211935 0)
(4.3952 0.00256574 0)
(4.34323 0.00309471 0)
(4.28345 0.00371614 0)
(4.21524 0.00445138 0)
(4.13712 0.00530841 0)
(4.04884 0.00633002 0)
(3.94762 0.00750768 0)
(3.83467 0.00894528 0)
(3.70355 0.0105623 0)
(3.56056 0.0126612 0)
(3.38817 0.0148803 0)
(3.20976 0.0182477 0)
(2.97248 0.0213386 0)
(2.75827 0.0277245 0)
(2.39676 0.0310249 0)
(2.17133 0.0464681 0)
(1.4913 0.0389519 0)
(1.42839 0.0852125 0)
(-0.282513 0.055458 0)
(7.50877 0.0180892 0)
(6.45039 0.0067958 0)
(5.95131 0.00233063 0)
(5.73593 0.0013166 0)
(5.60158 0.00101588 0)
(5.50414 0.000823973 0)
(5.42647 0.000683616 0)
(5.36535 0.000578128 0)
(5.31479 0.000500065 0)
(5.27322 0.000439283 0)
(5.2378 0.000392026 0)
(5.2077 0.00035352 0)
(5.18155 0.000322269 0)
(5.1588 0.000295963 0)
(5.13875 0.000274088 0)
(5.121 0.000255998 0)
(5.1051 0.000241993 0)
(5.09068 0.0002323 0)
(5.07738 0.000227384 0)
(5.06486 0.000227403 0)
(5.05281 0.000232188 0)
(5.041 0.00024102 0)
(5.02926 0.000252803 0)
(5.0175 0.000266068 0)
(5.00571 0.000279293 0)
(4.99395 0.000291045 0)
(4.98232 0.000300264 0)
(4.97094 0.00030655 0)
(4.95991 0.000310171 0)
(4.9493 0.000312105 0)
(4.93914 0.000314015 0)
(4.92938 0.000318173 0)
(4.91991 0.000327358 0)
(4.91056 0.000344741 0)
(4.90108 0.000373822 0)
(4.89118 0.000418392 0)
(4.88051 0.00048251 0)
(4.86868 0.000570544 0)
(4.85525 0.000687189 0)
(4.83978 0.000837602 0)
(4.82176 0.00102741 0)
(4.80068 0.00126299 0)
(4.77599 0.00155135 0)
(4.74711 0.00190081 0)
(4.71342 0.00232028 0)
(4.6743 0.00282126 0)
(4.62899 0.00341497 0)
(4.57683 0.00411846 0)
(4.51686 0.00494486 0)
(4.44845 0.00592254 0)
(4.37015 0.00706217 0)
(4.28168 0.00842039 0)
(4.18033 0.00998649 0)
(4.0672 0.0118975 0)
(3.93611 0.0140491 0)
(3.79297 0.016838 0)
(3.62103 0.0197954 0)
(3.44236 0.0242539 0)
(3.20683 0.0283471 0)
(2.99128 0.0367391 0)
(2.63536 0.0412586 0)
(2.4039 0.0616339 0)
(1.74789 0.0541268 0)
(1.63887 0.117403 0)
(0.0294524 0.0789948 0)
(7.70391 0.0199781 0)
(6.75777 0.00847428 0)
(6.20904 0.00319232 0)
(5.96289 0.00176115 0)
(5.81664 0.0013181 0)
(5.71383 0.0010614 0)
(5.6327 0.000880066 0)
(5.56894 0.000743987 0)
(5.5163 0.000643215 0)
(5.47304 0.000564737 0)
(5.43624 0.000503769 0)
(5.40499 0.000454117 0)
(5.37785 0.000413846 0)
(5.35426 0.000379965 0)
(5.33347 0.000351801 0)
(5.31509 0.0003285 0)
(5.29862 0.000310431 0)
(5.2837 0.000297862 0)
(5.26995 0.000291377 0)
(5.25702 0.000291172 0)
(5.24461 0.000297033 0)
(5.23246 0.000308055 0)
(5.2204 0.000322853 0)
(5.20834 0.000339568 0)
(5.19626 0.000356269 0)
(5.18423 0.000371139 0)
(5.17233 0.000382828 0)
(5.16069 0.000390809 0)
(5.14941 0.000395403 0)
(5.13856 0.000397826 0)
(5.12817 0.000400161 0)
(5.1182 0.000405268 0)
(5.10853 0.000416641 0)
(5.09901 0.000438283 0)
(5.08937 0.000474605 0)
(5.07934 0.000530393 0)
(5.06855 0.000610767 0)
(5.05662 0.000721237 0)
(5.04312 0.000867719 0)
(5.02759 0.00105671 0)
(5.00953 0.00129529 0)
(4.98843 0.00159149 0)
(4.96373 0.00195409 0)
(4.93486 0.00239357 0)
(4.9012 0.00292111 0)
(4.86212 0.00355113 0)
(4.81689 0.00429771 0)
(4.76483 0.00518226 0)
(4.70501 0.00622124 0)
(4.63678 0.0074502 0)
(4.55872 0.00888264 0)
(4.47054 0.0105893 0)
(4.36961 0.0125575 0)
(4.25695 0.0149578 0)
(4.12658 0.0176621 0)
(3.98412 0.021162 0)
(3.81349 0.0248823 0)
(3.6357 0.0304585 0)
(3.40291 0.0355916 0)
(3.18787 0.046023 0)
(2.83838 0.0518346 0)
(2.6044 0.0770309 0)
(1.97502 0.0701113 0)
(1.8333 0.149177 0)
(0.352472 0.105095 0)
(7.84593 0.0214193 0)
(7.02825 0.0101293 0)
(6.44159 0.00418112 0)
(6.1614 0.00228078 0)
(6.00148 0.00165658 0)
(5.89256 0.001321 0)
(5.80775 0.00109329 0)
(5.7413 0.000923601 0)
(5.68657 0.000798019 0)
(5.64164 0.000700251 0)
(5.60347 0.000624349 0)
(5.57108 0.000562581 0)
(5.54297 0.000512516 0)
(5.51856 0.00047042 0)
(5.49707 0.000435439 0)
(5.47806 0.00040649 0)
(5.46105 0.000383998 0)
(5.44566 0.000368273 0)
(5.43147 0.000360017 0)
(5.41817 0.000359466 0)
(5.4054 0.000366358 0)
(5.39294 0.000379594 0)
(5.38059 0.000397488 0)
(5.36826 0.000417776 0)
(5.35593 0.000438095 0)
(5.34365 0.000456224 0)
(5.33152 0.000470504 0)
(5.31965 0.000480269 0)
(5.30814 0.000485884 0)
(5.29709 0.000488809 0)
(5.2865 0.000491557 0)
(5.27634 0.00049759 0)
(5.26651 0.000511151 0)
(5.25683 0.0005371 0)
(5.24707 0.000580805 0)
(5.23692 0.000648083 0)
(5.22605 0.000745162 0)
(5.21407 0.000878736 0)
(5.20053 0.00105599 0)
(5.18499 0.00128482 0)
(5.16694 0.00157381 0)
(5.14589 0.00193268 0)
(5.12126 0.00237209 0)
(5.0925 0.00290469 0)
(5.05897 0.00354403 0)
(5.02008 0.00430754 0)
(4.97507 0.00521224 0)
(4.92329 0.00628396 0)
(4.8638 0.00754264 0)
(4.79598 0.00903116 0)
(4.71843 0.0107659 0)
(4.63083 0.0128321 0)
(4.53064 0.0152148 0)
(4.41882 0.0181187 0)
(4.28957 0.0213922 0)
(4.14828 0.025622 0)
(3.97945 0.0301268 0)
(3.80321 0.036844 0)
(3.57367 0.043049 0)
(3.36023 0.0555486 0)
(3.01768 0.0627058 0)
(2.78343 0.0925636 0)
(2.18156 0.0866878 0)
(2.01672 0.179954 0)
(0.668126 0.132038 0)
(7.95861 0.022519 0)
(7.26737 0.0117406 0)
(6.65821 0.00529545 0)
(6.34134 0.00288511 0)
(6.16625 0.00203661 0)
(6.05032 0.0016057 0)
(5.9615 0.00132484 0)
(5.89222 0.00111797 0)
(5.83536 0.00096523 0)
(5.78871 0.00084643 0)
(5.74916 0.000754265 0)
(5.71562 0.000679337 0)
(5.68656 0.000618645 0)
(5.66132 0.00056765 0)
(5.63912 0.000525289 0)
(5.6195 0.000490222 0)
(5.60195 0.000462923 0)
(5.58608 0.000443738 0)
(5.57148 0.000433486 0)
(5.5578 0.000432444 0)
(5.54471 0.0004403 0)
(5.53194 0.000455752 0)
(5.51932 0.000476806 0)
(5.50674 0.000500775 0)
(5.49418 0.000524842 0)
(5.48167 0.000546361 0)
(5.46933 0.00056335 0)
(5.45725 0.000574987 0)
(5.44555 0.000581675 0)
(5.4343 0.000585115 0)
(5.42353 0.000588262 0)
(5.41321 0.000595197 0)
(5.40323 0.000610937 0)
(5.39342 0.000641232 0)
(5.38354 0.000692438 0)
(5.37331 0.000771448 0)
(5.36237 0.000885638 0)
(5.35034 0.00104293 0)
(5.3368 0.00125184 0)
(5.32128 0.00152169 0)
(5.30329 0.00186261 0)
(5.28231 0.00228611 0)
(5.25781 0.00280474 0)
(5.22921 0.00343342 0)
(5.1959 0.00418811 0)
(5.15726 0.00508932 0)
(5.11257 0.00615711 0)
(5.06117 0.00742183 0)
(5.00214 0.00890697 0)
(4.93486 0.0106629 0)
(4.85796 0.0127089 0)
(4.77113 0.0151449 0)
(4.67187 0.017954 0)
(4.56111 0.0213752 0)
(4.43321 0.0252332 0)
(4.29338 0.0302106 0)
(4.12661 0.0355202 0)
(3.9523 0.0434006 0)
(3.72619 0.0507094 0)
(3.51501 0.0652926 0)
(3.18022 0.073856 0)
(2.94672 0.108189 0)
(2.37189 0.103718 0)
(2.19087 0.209537 0)
(0.967109 0.159055 0)
(8.03913 0.0232573 0)
(7.47325 0.0132866 0)
(6.86183 0.00652004 0)
(6.50987 0.003584 0)
(6.31729 0.00246581 0)
(6.19333 0.00191908 0)
(6.10005 0.00157668 0)
(6.02776 0.00132839 0)
(5.96864 0.00114581 0)
(5.92023 0.00100404 0)
(5.87926 0.000894154 0)
(5.84454 0.000804927 0)
(5.8145 0.000732705 0)
(5.78843 0.000672069 0)
(5.76551 0.00062172 0)
(5.74527 0.000580029 0)
(5.72718 0.000547506 0)
(5.71084 0.000524529 0)
(5.69582 0.00051203 0)
(5.68177 0.000510328 0)
(5.66835 0.000519057 0)
(5.65529 0.000536708 0)
(5.64241 0.000560969 0)
(5.62959 0.000588711 0)
(5.6168 0.000616645 0)
(5.60409 0.000641681 0)
(5.59154 0.000661492 0)
(5.57927 0.000675087 0)
(5.56739 0.0006829 0)
(5.55597 0.000686872 0)
(5.54503 0.000690405 0)
(5.53456 0.000698218 0)
(5.52444 0.000716122 0)
(5.5145 0.000750791 0)
(5.50453 0.000809605 0)
(5.49421 0.000900571 0)
(5.48323 0.00103226 0)
(5.47118 0.00121386 0)
(5.45764 0.00145526 0)
(5.44215 0.00176727 0)
(5.42424 0.00216162 0)
(5.40338 0.00265164 0)
(5.37903 0.00325184 0)
(5.35063 0.00397947 0)
(5.31757 0.00485297 0)
(5.27923 0.00589602 0)
(5.23491 0.00713174 0)
(5.18396 0.00859516 0)
(5.12546 0.0103134 0)
(5.0588 0.0123443 0)
(4.98264 0.0147104 0)
(4.89667 0.0175263 0)
(4.79846 0.0207732 0)
(4.68889 0.024725 0)
(4.56248 0.0291824 0)
(4.42425 0.0349248 0)
(4.25967 0.0410588 0)
(4.08749 0.050127 0)
(3.86482 0.0585613 0)
(3.65628 0.0752288 0)
(3.33009 0.0852669 0)
(3.09778 0.123865 0)
(2.54882 0.121107 0)
(2.35697 0.23789 0)
(1.24584 0.1858 0)
(8.07163 0.0237091 0)
(7.63952 0.0147115 0)
(7.05283 0.00782379 0)
(6.67221 0.00438493 0)
(6.45879 0.00295226 0)
(6.32575 0.00226508 0)
(6.22746 0.00185124 0)
(6.1519 0.00155641 0)
(6.0904 0.0013409 0)
(6.04013 0.001174 0)
(5.99767 0.00104477 0)
(5.96174 0.000939998 0)
(5.93068 0.000855255 0)
(5.90375 0.000784172 0)
(5.8801 0.000725171 0)
(5.85923 0.000676306 0)
(5.84058 0.000638107 0)
(5.82376 0.000610973 0)
(5.80832 0.000595947 0)
(5.79389 0.000593389 0)
(5.78014 0.000602877 0)
(5.7668 0.000622688 0)
(5.75365 0.000650183 0)
(5.7406 0.000681776 0)
(5.72759 0.000713685 0)
(5.71468 0.000742356 0)
(5.70195 0.000765099 0)
(5.6895 0.000780739 0)
(5.67745 0.00078973 0)
(5.66586 0.00079425 0)
(5.65477 0.000798157 0)
(5.64415 0.000806822 0)
(5.63389 0.000826873 0)
(5.62385 0.000865939 0)
(5.61378 0.000932459 0)
(5.6034 0.00103559 0)
(5.59236 0.00118515 0)
(5.5803 0.00139164 0)
(5.56677 0.00166635 0)
(5.55134 0.00202163 0)
(5.53351 0.0024709 0)
(5.51278 0.00302931 0)
(5.4886 0.00371342 0)
(5.46042 0.00454286 0)
(5.42764 0.00553861 0)
(5.38964 0.00672758 0)
(5.34572 0.00813608 0)
(5.29525 0.00980385 0)
(5.23732 0.0117616 0)
(5.17133 0.0140752 0)
(5.09597 0.0167701 0)
(5.01092 0.019976 0)
(4.91381 0.0236721 0)
(4.80549 0.0281676 0)
(4.68062 0.0332394 0)
(4.54409 0.0397643 0)
(4.38171 0.0467433 0)
(4.21175 0.0570223 0)
(3.99269 0.0666073 0)
(3.78693 0.0853327 0)
(3.46967 0.0969059 0)
(3.23946 0.139605 0)
(2.71461 0.138793 0)
(2.5164 0.2651 0)
(1.50458 0.212191 0)
(8.07459 0.0239951 0)
(7.76824 0.0159615 0)
(7.23094 0.00916209 0)
(6.83072 0.00528677 0)
(6.59431 0.00350641 0)
(6.45051 0.00264944 0)
(6.3466 0.00215136 0)
(6.26745 0.00180388 0)
(6.20338 0.00155186 0)
(6.15113 0.00135737 0)
(6.10711 0.00120701 0)
(6.0699 0.0010853 0)
(6.03779 0.000986944 0)
(6.00996 0.000904529 0)
(5.98555 0.000836153 0)
(5.96402 0.000779514 0)
(5.94481 0.000735142 0)
(5.92748 0.000703449 0)
(5.91161 0.000685583 0)
(5.8968 0.000681945 0)
(5.88272 0.00069205 0)
(5.86908 0.00071396 0)
(5.85568 0.000744697 0)
(5.84239 0.000780201 0)
(5.82918 0.000816181 0)
(5.81607 0.000848597 0)
(5.80316 0.000874377 0)
(5.79054 0.000892146 0)
(5.77832 0.000902366 0)
(5.76657 0.000907452 0)
(5.75533 0.00091172 0)
(5.74457 0.000921209 0)
(5.7342 0.00094339 0)
(5.72404 0.000986871 0)
(5.71388 0.00106119 0)
(5.70343 0.0011767 0)
(5.69236 0.00134449 0)
(5.68029 0.00157643 0)
(5.66678 0.00188528 0)
(5.65141 0.00228496 0)
(5.63367 0.0027906 0)
(5.61308 0.00341929 0)
(5.58908 0.00418965 0)
(5.56114 0.00512376 0)
(5.52864 0.00624522 0)
(5.49099 0.00758425 0)
(5.44749 0.00917038 0)
(5.39752 0.0110482 0)
(5.34018 0.0132522 0)
(5.27488 0.015856 0)
(5.20034 0.0188885 0)
(5.11624 0.0224944 0)
(5.02026 0.0266514 0)
(4.91322 0.031704 0)
(4.78991 0.0374054 0)
(4.65508 0.0447316 0)
(4.49485 0.0525759 0)
(4.32711 0.0640787 0)
(4.11211 0.0748461 0)
(3.90931 0.0956039 0)
(3.60073 0.108758 0)
(3.37382 0.15542 0)
(2.87113 0.156728 0)
(2.67013 0.291255 0)
(1.74455 0.238222 0)
(8.06438 0.0241355 0)
(7.86805 0.0170222 0)
(7.39548 0.0104926 0)
(6.98594 0.00628314 0)
(6.72695 0.00413937 0)
(6.56981 0.00307844 0)
(6.45957 0.00248027 0)
(6.37645 0.002073 0)
(6.3096 0.00178027 0)
(6.25523 0.0015554 0)
(6.20955 0.00138187 0)
(6.17099 0.00124168 0)
(6.13776 0.00112851 0)
(6.109 0.00103379 0)
(6.08379 0.000955246 0)
(6.06157 0.000890173 0)
(6.04176 0.000839085 0)
(6.02392 0.00080239 0)
(6.0076 0.000781334 0)
(5.9924 0.000776358 0)
(5.97797 0.000786911 0)
(5.96403 0.00081083 0)
(5.95037 0.000844796 0)
(5.93685 0.000884255 0)
(5.92343 0.000924388 0)
(5.91013 0.000960648 0)
(5.89704 0.000989562 0)
(5.88425 0.00100954 0)
(5.87187 0.00102104 0)
(5.85998 0.00102671 0)
(5.84859 0.00103133 0)
(5.8377 0.00104161 0)
(5.8272 0.0010659 0)
(5.81694 0.00111381 0)
(5.8067 0.00119602 0)
(5.79619 0.00132411 0)
(5.78508 0.00151049 0)
(5.773 0.00176846 0)
(5.75952 0.00211226 0)
(5.7442 0.00255747 0)
(5.72657 0.00312098 0)
(5.70611 0.00382184 0)
(5.6823 0.00468082 0)
(5.65459 0.00572252 0)
(5.62239 0.0069732 0)
(5.58509 0.00846647 0)
(5.54202 0.0102352 0)
(5.49256 0.0123288 0)
(5.43582 0.0147858 0)
(5.37123 0.0176877 0)
(5.29751 0.0210667 0)
(5.21436 0.025083 0)
(5.11951 0.0297126 0)
(5.01374 0.0353361 0)
(4.89196 0.0416831 0)
(4.7588 0.0498309 0)
(4.60074 0.0585582 0)
(4.4353 0.0712918 0)
(4.22454 0.0832638 0)
(4.0251 0.106046 0)
(3.72471 0.120807 0)
(3.50193 0.171285 0)
(3.01977 0.174877 0)
(2.81868 0.31646 0)
(1.96708 0.263942 0)
(8.05021 0.0241852 0)
(7.94492 0.01788 0)
(7.54426 0.01178 0)
(7.13749 0.00736008 0)
(6.85856 0.00485771 0)
(6.68592 0.00356134 0)
(6.568 0.00284241 0)
(6.48048 0.00236626 0)
(6.41058 0.00202798 0)
(6.35393 0.00176951 0)
(6.30647 0.00157051 0)
(6.26647 0.00141014 0)
(6.23205 0.00128081 0)
(6.20231 0.0011727 0)
(6.17626 0.00108311 0)
(6.15332 0.00100888 0)
(6.13289 0.000950472 0)
(6.1145 0.000908285 0)
(6.0977 0.000883648 0)
(6.0821 0.000877042 0)
(6.06731 0.000887839 0)
(6.05307 0.000913652 0)
(6.03913 0.000950807 0)
(6.02537 0.000994245 0)
(6.01174 0.00103859 0)
(5.99826 0.00107878 0)
(5.98499 0.00111092 0)
(5.97204 0.00113318 0)
(5.9595 0.00114601 0)
(5.94745 0.00115227 0)
(5.93593 0.00115722 0)
(5.92491 0.00116827 0)
(5.91429 0.00119465 0)
(5.90393 0.001247 0)
(5.8936 0.00133719 0)
(5.88303 0.00147807 0)
(5.87189 0.00168341 0)
(5.8598 0.00196797 0)
(5.84635 0.00234757 0)
(5.8311 0.00283946 0)
(5.81356 0.00346234 0)
(5.79324 0.00423731 0)
(5.76962 0.00518734 0)
(5.74215 0.00633959 0)
(5.71024 0.00772307 0)
(5.67331 0.00937486 0)
(5.63066 0.0113312 0)
(5.5817 0.0136466 0)
(5.52556 0.0163633 0)
(5.46167 0.0195713 0)
(5.38877 0.023306 0)
(5.30657 0.0277434 0)
(5.21282 0.0328579 0)
(5.1083 0.039067 0)
(4.988 0.0460775 0)
(4.85645 0.0550611 0)
(4.70071 0.0646915 0)
(4.53773 0.0786637 0)
(4.33113 0.0918531 0)
(4.1353 0.116652 0)
(3.84269 0.133049 0)
(3.62453 0.1872 0)
(3.16159 0.193208 0)
(2.96244 0.340854 0)
(2.17403 0.28943 0)
(8.03639 0.0241547 0)
(8.00212 0.0185349 0)
(7.6742 0.0129856 0)
(7.2846 0.00849418 0)
(6.99 0.00566409 0)
(6.80099 0.00410866 0)
(6.67347 0.00324378 0)
(6.58078 0.00268684 0)
(6.50752 0.00229709 0)
(6.4484 0.00200134 0)
(6.39902 0.00177428 0)
(6.35748 0.00159177 0)
(6.3218 0.00144479 0)
(6.291 0.00132209 0)
(6.26406 0.00122048 0)
(6.24035 0.00113629 0)
(6.21927 0.00106991 0)
(6.20031 0.00102169 0)
(6.18302 0.000993033 0)
(6.16698 0.000984463 0)
(6.15183 0.000995263 0)
(6.13726 0.00102282 0)
(6.12304 0.0010631 0)
(6.10904 0.00111051 0)
(6.09519 0.00115912 0)
(6.08151 0.00120332 0)
(6.06807 0.00123876 0)
(6.05496 0.00126337 0)
(6.04226 0.00127756 0)
(6.03007 0.00128443 0)
(6.01841 0.00128969 0)
(6.00726 0.00130147 0)
(5.99653 0.0013299 0)
(5.98607 0.00138672 0)
(5.97566 0.00148497 0)
(5.96503 0.00163884 0)
(5.95386 0.0018635 0)
(5.94176 0.00217525 0)
(5.92834 0.00259149 0)
(5.91314 0.00313122 0)
(5.8957 0.00381503 0)
(5.87553 0.0046661 0)
(5.85209 0.00570964 0)
(5.82486 0.00697549 0)
(5.79324 0.00849546 0)
(5.75666 0.0103102 0)
(5.71444 0.0124593 0)
(5.66598 0.0150025 0)
(5.61043 0.0179861 0)
(5.54722 0.0215083 0)
(5.47513 0.0256083 0)
(5.39384 0.0304779 0)
(5.30117 0.0360902 0)
(5.19786 0.0429013 0)
(5.07897 0.0505902 0)
(4.94906 0.060423 0)
(4.79578 0.0709725 0)
(4.63536 0.0861916 0)
(4.43276 0.100615 0)
(4.24065 0.127422 0)
(3.95552 0.14548 0)
(3.7422 0.203169 0)
(3.29734 0.211691 0)
(3.10173 0.36456 0)
(2.3674 0.314769 0)
(8.02491 0.0240715 0)
(8.04359 0.0190106 0)
(7.7854 0.0140819 0)
(7.42615 0.00965671 0)
(7.12146 0.00655635 0)
(6.91634 0.00472833 0)
(6.77763 0.00369301 0)
(6.67853 0.00303915 0)
(6.60142 0.00259012 0)
(6.53958 0.00225276 0)
(6.48813 0.00199468 0)
(6.44493 0.00178786 0)
(6.4079 0.00162154 0)
(6.37597 0.00148291 0)
(6.34808 0.00136821 0)
(6.32357 0.00127318 0)
(6.30178 0.00119808 0)
(6.28222 0.00114322 0)
(6.2644 0.00111006 0)
(6.24791 0.00109914 0)
(6.23236 0.00110967 0)
(6.21745 0.00113878 0)
(6.20295 0.00118209 0)
(6.18869 0.00123345 0)
(6.17462 0.00128634 0)
(6.16075 0.00133459 0)
(6.14712 0.0013734 0)
(6.13384 0.00140041 0)
(6.121 0.001416 0)
(6.10866 0.00142348 0)
(6.09687 0.00142903 0)
(6.08559 0.0014415 0)
(6.07475 0.00147195 0)
(6.06419 0.00153323 0)
(6.0537 0.00163963 0)
(6.04302 0.0018067 0)
(6.03181 0.00205107 0)
(6.01971 0.0023906 0)
(6.00631 0.00284435 0)
(5.99117 0.00343313 0)
(5.97383 0.00417945 0)
(5.95379 0.00510865 0)
(5.93054 0.00624826 0)
(5.90354 0.00763085 0)
(5.8722 0.00929109 0)
(5.83597 0.0112732 0)
(5.79416 0.0136205 0)
(5.74619 0.0163978 0)
(5.69122 0.0196557 0)
(5.62868 0.0235007 0)
(5.55737 0.0279758 0)
(5.47697 0.0332893 0)
(5.38533 0.0394139 0)
(5.28315 0.0468411 0)
(5.16572 0.055224 0)
(5.03757 0.0659191 0)
(4.88671 0.077399 0)
(4.72888 0.0938779 0)
(4.53015 0.109551 0)
(4.34173 0.13836 0)
(4.06384 0.158099 0)
(3.85545 0.219193 0)
(3.42768 0.230302 0)
(3.23682 0.387683 0)
(2.54916 0.340027 0)
(8.01698 0.0239426 0)
(8.0694 0.019322 0)
(7.87952 0.0150511 0)
(7.55973 0.0108176 0)
(7.25258 0.0075266 0)
(7.03274 0.00542646 0)
(6.88183 0.00419885 0)
(6.77502 0.00342961 0)
(6.69322 0.00291063 0)
(6.62828 0.00252594 0)
(6.57456 0.00223344 0)
(6.52957 0.00199985 0)
(6.49108 0.0018123 0)
(6.45795 0.00165623 0)
(6.42904 0.00152724 0)
(6.40366 0.00142037 0)
(6.38113 0.00133575 0)
(6.36092 0.00127358 0)
(6.34255 0.00123536 0)
(6.32558 0.00122167 0)
(6.30961 0.00123159 0)
(6.29434 0.00126204 0)
(6.27953 0.00130824 0)
(6.26501 0.00136349 0)
(6.25071 0.00142065 0)
(6.23663 0.00147299 0)
(6.22282 0.00151521 0)
(6.20938 0.00154466 0)
(6.19638 0.00156167 0)
(6.1839 0.00156974 0)
(6.17196 0.00157555 0)
(6.16056 0.00158866 0)
(6.14961 0.0016211 0)
(6.13896 0.00168685 0)
(6.12839 0.00180148 0)
(6.11765 0.00198196 0)
(6.10641 0.00224642 0)
(6.0943 0.00261434 0)
(6.08093 0.0031065 0)
(6.06585 0.00374556 0)
(6.0486 0.00455603 0)
(6.0287 0.00556546 0)
(6.00562 0.00680378 0)
(5.97884 0.00830633 0)
(5.94779 0.0101108 0)
(5.91189 0.012265 0)
(5.87049 0.014816 0)
(5.82299 0.0178339 0)
(5.76858 0.0213736 0)
(5.70669 0.0255504 0)
(5.63612 0.030411 0)
(5.55658 0.0361813 0)
(5.4659 0.0428318 0)
(5.36486 0.0508884 0)
(5.24897 0.0599797 0)
(5.1226 0.0715481 0)
(4.9741 0.0839746 0)
(4.81883 0.101727 0)
(4.62387 0.118668 0)
(4.43908 0.149467 0)
(4.16819 0.170907 0)
(3.96476 0.235275 0)
(3.55313 0.249021 0)
(3.36791 0.410305 0)
(2.72105 0.365254 0)
(8.01296 0.0237931 0)
(8.07466 0.0194841 0)
(7.95544 0.015859 0)
(7.68116 0.0119413 0)
(7.38248 0.00855801 0)
(7.15062 0.00620604 0)
(6.98701 0.00476922 0)
(6.87142 0.00386567 0)
(6.78399 0.00326378 0)
(6.71532 0.00282414 0)
(6.65898 0.00249256 0)
(6.61204 0.00222935 0)
(6.57197 0.00201847 0)
(6.53753 0.00184327 0)
(6.50753 0.00169865 0)
(6.48122 0.00157883 0)
(6.45789 0.00148377 0)
(6.437 0.00141355 0)
(6.41803 0.00136965 0)
(6.40054 0.0013527 0)
(6.38413 0.00136164 0)
(6.36849 0.00139315 0)
(6.35334 0.00144207 0)
(6.33854 0.0015011 0)
(6.324 0.00156251 0)
(6.30971 0.00161893 0)
(6.29572 0.00166458 0)
(6.2821 0.0016965 0)
(6.26894 0.00171493 0)
(6.25632 0.00172357 0)
(6.24425 0.00172959 0)
(6.23273 0.00174329 0)
(6.22167 0.00177767 0)
(6.21092 0.00184789 0)
(6.20028 0.00197084 0)
(6.18948 0.00216493 0)
(6.1782 0.00244988 0)
(6.16609 0.00284681 0)
(6.15274 0.0033783 0)
(6.13772 0.00406892 0)
(6.12056 0.00494524 0)
(6.10078 0.00603707 0)
(6.07788 0.00737681 0)
(6.05132 0.00900269 0)
(6.02054 0.0109554 0)
(5.98497 0.0132866 0)
(5.94395 0.016047 0)
(5.89692 0.0193124 0)
(5.84304 0.0231418 0)
(5.78177 0.0276597 0)
(5.71192 0.0329172 0)
(5.63318 0.0391572 0)
(5.54345 0.0463463 0)
(5.4436 0.055045 0)
(5.32927 0.0648566 0)
(5.20467 0.0773135 0)
(5.05846 0.0907039 0)
(4.90569 0.109742 0)
(4.71439 0.127969 0)
(4.53314 0.160748 0)
(4.26903 0.183907 0)
(4.07052 0.25142 0)
(3.67419 0.267832 0)
(3.49518 0.432488 0)
(2.88451 0.390486 0)
(8.01206 0.023648 0)
(8.06662 0.0195333 0)
(8.01203 0.0164804 0)
(7.78757 0.0129853 0)
(7.50937 0.00962315 0)
(7.2699 0.00706587 0)
(7.09386 0.00541104 0)
(6.96864 0.00435463 0)
(6.87471 0.00365575 0)
(6.80161 0.00315183 0)
(6.74213 0.0027752 0)
(6.69289 0.00247836 0)
(6.65109 0.00224152 0)
(6.61525 0.00204538 0)
(6.58407 0.00188364 0)
(6.55675 0.00174965 0)
(6.53257 0.00164314 0)
(6.51094 0.00156402 0)
(6.49134 0.00151375 0)
(6.47329 0.00149299 0)
(6.45641 0.00150049 0)
(6.44036 0.00153274 0)
(6.42487 0.00158417 0)
(6.40976 0.00164684 0)
(6.39497 0.0017124 0)
(6.38045 0.00177287 0)
(6.36627 0.00182195 0)
(6.35247 0.00185633 0)
(6.33916 0.00187616 0)
(6.32639 0.00188534 0)
(6.31419 0.0018915 0)
(6.30254 0.00190572 0)
(6.29137 0.00194199 0)
(6.28053 0.00201667 0)
(6.26981 0.00214801 0)
(6.25896 0.00235594 0)
(6.24765 0.00266178 0)
(6.23553 0.00308838 0)
(6.2222 0.00366015 0)
(6.20723 0.00440365 0)
(6.19016 0.00534756 0)
(6.17052 0.00652404 0)
(6.14778 0.00796802 0)
(6.12143 0.00972071 0)
(6.0909 0.0118258 0)
(6.05565 0.0143391 0)
(6.01501 0.017315 0)
(5.96842 0.0208348 0)
(5.91505 0.0249624 0)
(5.85437 0.0298314 0)
(5.78519 0.0354977 0)
(5.70721 0.042219 0)
(5.61849 0.0499595 0)
(5.51987 0.0593117 0)
(5.40706 0.0698578 0)
(5.28419 0.0832196 0)
(5.14022 0.0975919 0)
(4.98987 0.117929 0)
(4.80213 0.13746 0)
(4.62433 0.172207 0)
(4.36678 0.1971 0)
(4.1731 0.267632 0)
(3.7913 0.286724 0)
(3.61881 0.454279 0)
(3.04071 0.415748 0)
(8.01294 0.023518 0)
(8.05521 0.0194957 0)
(8.05088 0.0169157 0)
(7.87988 0.0139199 0)
(7.62986 0.0106918 0)
(7.38985 0.00799737 0)
(7.20284 0.00612923 0)
(7.06738 0.00490384 0)
(6.96615 0.00409277 0)
(6.88798 0.00351424 0)
(6.82484 0.00308552 0)
(6.77284 0.00274996 0)
(6.72899 0.00248369 0)
(6.69155 0.00226409 0)
(6.6591 0.00208353 0)
(6.6307 0.00193404 0)
(6.6056 0.00181493 0)
(6.58317 0.00172598 0)
(6.56288 0.00166856 0)
(6.54424 0.00164336 0)
(6.52685 0.00164892 0)
(6.51036 0.00168153 0)
(6.49449 0.00173518 0)
(6.47907 0.00180129 0)
(6.464 0.00187088 0)
(6.44926 0.00193533 0)
(6.43486 0.0019878 0)
(6.42089 0.0020246 0)
(6.40741 0.00204579 0)
(6.39449 0.00205544 0)
(6.38216 0.00206167 0)
(6.37039 0.00207632 0)
(6.35911 0.00211441 0)
(6.34818 0.00219353 0)
(6.33739 0.00233335 0)
(6.32648 0.00255533 0)
(6.31514 0.00288247 0)
(6.30302 0.00333941 0)
(6.28971 0.00395245 0)
(6.27479 0.0047502 0)
(6.2578 0.00576351 0)
(6.23828 0.00702698 0)
(6.2157 0.00857815 0)
(6.18955 0.0104613 0)
(6.15928 0.0127233 0)
(6.12432 0.0154238 0)
(6.08404 0.0186214 0)
(6.03787 0.0224031 0)
(5.98499 0.0268377 0)
(5.92486 0.0320688 0)
(5.85632 0.0381547 0)
(5.77914 0.0453686 0)
(5.69145 0.0536718 0)
(5.59404 0.0636909 0)
(5.48271 0.0749877 0)
(5.36153 0.0892708 0)
(5.21973 0.104644 0)
(5.07174 0.126293 0)
(4.88745 0.147147 0)
(4.713 0.18385 0)
(4.4618 0.210492 0)
(4.27283 0.283917 0)
(3.90486 0.305691 0)
(3.73896 0.475713 0)
(3.19059 0.44105 0)
(8.01431 0.0234003 0)
(8.04688 0.0193983 0)
(8.07275 0.0171765 0)
(7.95801 0.0147188 0)
(7.73929 0.011724 0)
(7.50888 0.00897919 0)
(7.31402 0.00692492 0)
(7.16826 0.00552042 0)
(7.05896 0.00458158 0)
(6.97505 0.00391667 0)
(6.90777 0.00342806 0)
(6.85262 0.00304818 0)
(6.80634 0.00274801 0)
(6.76699 0.00250187 0)
(6.73304 0.00230005 0)
(6.70344 0.00213326 0)
(6.67734 0.00200036 0)
(6.65405 0.00190058 0)
(6.63302 0.00183512 0)
(6.61374 0.00180475 0)
(6.5958 0.00180779 0)
(6.57884 0.0018403 0)
(6.56257 0.00189583 0)
(6.54681 0.00196514 0)
(6.53145 0.00203857 0)
(6.51645 0.00210689 0)
(6.50185 0.00216266 0)
(6.48768 0.00220181 0)
(6.47404 0.00222428 0)
(6.46097 0.0022343 0)
(6.4485 0.00224049 0)
(6.43662 0.00225547 0)
(6.42523 0.00229529 0)
(6.41421 0.00237883 0)
(6.40334 0.00252719 0)
(6.39238 0.00276345 0)
(6.38101 0.00311232 0)
(6.36888 0.00360028 0)
(6.35559 0.00425562 0)
(6.34072 0.00510904 0)
(6.32382 0.00619365 0)
(6.3044 0.00754654 0)
(6.28198 0.00920796 0)
(6.25603 0.0112253 0)
(6.22599 0.0136487 0)
(6.19132 0.016542 0)