/*--------------------------------*- C++ -*----------------------------------*\
| =========                 |                                                 |
| \\      /  F ield         | OpenFOAM: The Open Source CFD Toolbox           |
|  \\    /   O peration     | Version:  v1906                                 |
|   \\  /    A nd           | Web:      www.OpenFOAM.com                      |
|    \\/     M anipulation  |                                                 |
\*---------------------------------------------------------------------------*/
FoamFile
{
    version     2.0;
    format      ascii;
    class       volScalarField;
    location    "0.1";
    object      yPlus;
}
// * * * * * * * * * * * * * * * * * * * * * * * * * * * * * * * * * * * * * //

dimensions      [0 0 0 0 0 0 0];


internalField   uniform 0;

boundaryField
{
    inlet
    {
        type            calculated;
        value           nonuniform List<scalar> 
200
(
359.74
513.863
428.224
345.094
263.364
184.289
109.432
35.1483
30.7049
38.7585
40.1957
36.2361
32.3928
29.2971
28.777
30.909
31.3229
31.4877
31.7844
31.9337
31.9583
31.892
31.7905
31.6812
31.5802
31.4908
31.4018
31.3086
31.2112
31.1091
31.0042
30.8959
30.7809
30.6658
30.5438
30.418
30.2883
30.1513
30.01
29.8645
29.7145
29.5599
29.3969
29.229
29.0559
28.8738
28.6899
28.4965
28.2934
28.088
27.8723
27.6501
27.4211
27.1851
26.9377
26.6871
26.4245
26.154
25.8754
25.5837
25.3107
25.0559
24.8015
24.5476
24.2993
24.0517
23.8047
23.5639
23.324
23.0852
22.8533
22.6228
22.3937
22.1725
21.9532
21.7359
21.5209
21.3151
21.1122
20.9123
20.7231
20.53
20.3563
20.1792
20.0149
19.8558
19.7023
19.5546
19.422
19.2962
19.1866
19.0757
18.9819
18.8966
18.8295
18.7619
18.7132
18.674
18.6543
18.6444
18.6444
18.6543
18.674
18.7132
18.7619
18.8295
18.8966
18.9819
19.0757
19.1866
19.2962
19.422
19.5546
19.7023
19.8558
20.0149
20.1792
20.3563
20.53
20.7231
20.9123
21.1122
21.3151
21.5209
21.7359
21.9532
22.1725
22.3937
22.6228
22.8533
23.0852
23.324
23.5639
23.8047
24.0517
24.2993
24.5476
24.8015
25.0559
25.3107
25.5837
25.8754
26.154
26.4245
26.6871
26.9377
27.1851
27.4211
27.6501
27.8723
28.088
28.2934
28.4965
28.6899
28.8738
29.0559
29.229
29.3969
29.5599
29.7145
29.8645
30.01
30.1513
30.2883
30.418
30.5438
30.6658
30.7809
30.8959
31.0042
31.1091
31.2112
31.3086
31.4018
31.4908
31.5802
31.6812
31.7905
31.892
31.9582
31.9337
31.7843
31.4879
31.3237
30.9117
28.7769
29.2971
32.3928
36.2361
40.1957
38.7585
30.7049
35.1483
109.432
184.289
263.364
345.094
428.224
513.863
359.74
)
;
    }
    outlet
    {
        type            calculated;
        value           uniform 0;
    }
    topWall
    {
        type            calculated;
        value           nonuniform List<scalar> 
400
(
10.5698
9.38883
9.04037
8.83063
8.66051
8.535
8.43517
8.35592
8.28958
8.23447
8.1871
8.14656
8.11108
8.08008
8.0526
8.0282
8.00627
7.98632
7.96782
7.95035
7.93348
7.91687
7.9003
7.88373
7.86721
7.85091
7.83514
7.82021
7.80654
7.79447
7.78434
7.77649
7.77117
7.76859
7.76885
7.77223
7.77894
7.78919
7.80314
7.82095
7.84287
7.86902
7.89958
7.93468
7.97438
8.01876
8.06776
8.12128
8.17922
8.24133
8.30734
8.37692
8.44971
8.52529
8.60326
8.68312
8.76455
8.84689
8.93009
9.0131
9.09671
9.17852
9.26187
9.34014
9.42292
9.46195
9.45382
9.44551
9.43688
9.42807
9.41975
9.412
9.40472
9.39781
9.39118
9.38479
9.37853
9.37238
9.36629
9.36023
9.35416
9.34808
9.34194
9.33574
9.32946
9.32309
9.31663
9.3101
9.30349
9.29681
9.29006
9.28326
9.27639
9.26948
9.26253
9.25552
9.24848
9.2414
9.23429
9.22716
9.21999
9.21279
9.20554
9.19824
9.19086
9.18339
9.17581
9.16812
9.16029
9.15232
9.14422
9.13597
9.12758
9.11905
9.11038
9.10158
9.09263
9.08356
9.07437
9.06506
9.05566
9.04615
9.03656
9.02689
9.01715
9.00735
8.99748
8.98757
8.97762
8.96762
8.9576
8.94757
8.9375
8.92745
8.91738
8.90731
8.89726
8.88721
8.87719
8.86719
8.85723
8.84729
8.83739
8.82754
8.81773
8.80796
8.79826
8.78861
8.77903
8.7695
8.76005
8.75065
8.74133
8.73208
8.72292
8.71382
8.70481
8.69589
8.68704
8.67828
8.6696
8.66101
8.65251
8.64411
8.63579
8.62755
8.61943
8.61139
8.60345
8.59559
8.58784
8.58018
8.57263
8.56517
8.5578
8.55054
8.54338
8.53631
8.52935
8.52248
8.51573
8.5091
8.50252
8.49625
8.48961
8.49645
8.51577
8.53536
8.55474
8.57389
8.59291
8.6118
8.63059
8.64933
8.66805
8.68673
8.70542
8.72412
8.74281
8.76151
8.78021
8.7989
8.81758
8.83626
8.85491
8.87353
8.89211
8.91065
8.92914
8.94757
8.96592
8.98419
9.00236
9.02043
9.03839
9.05621
9.0739
9.09143
9.10878
9.12596
9.14294
9.15972
9.17627
9.19258
9.20865
9.22443
9.23994
9.25514
9.27003
9.2846
9.29881
9.31268
9.32615
9.33922
9.35187
9.3641
9.37587
9.38718
9.39801
9.40835
9.41819
9.42751
9.43632
9.44458
9.4523
9.45944
9.46602
9.47202
9.47742
9.48223
9.4864
9.48998
9.49286
9.49497
9.49631
9.49696
9.49694
9.49625
9.4949
9.49289
9.49019
9.48682
9.48276
9.47804
9.47264
9.46658
9.45985
9.45246
9.44443
9.43574
9.42641
9.41644
9.40582
9.39455
9.38265
9.37008
9.35693
9.34319
9.32887
9.314
9.29858
9.28264
9.26618
9.24919
9.2317
9.21371
9.19527
9.17637
9.15708
9.13739
9.11736
9.09696
9.07623
9.05518
9.03384
9.01227
8.9905
8.96855
8.94647
8.92426
8.90188
8.87949
8.85703
8.8345
8.81193
8.7893
8.76663
8.7439
8.72114
8.69836
8.67558
8.65277
8.62999
8.60721
8.58452
8.56191
8.53945
8.51717
8.49509
8.47328
8.45174
8.43055
8.4097
8.38926
8.36929
8.34975
8.3309
8.3126
8.29516
8.27813
8.26268
8.24676
8.23445
8.21849
8.21228
8.17247
8.10232
8.04092
7.97883
7.91756
7.85672
7.79665
7.73771
7.68017
7.62424
7.57023
7.51841
7.46901
7.42229
7.37848
7.33774
7.30033
7.26638
7.23595
7.20915
7.18602
7.16654
7.1507
7.13839
7.1295
7.12396
7.12146
7.12196
7.12534
7.13132
7.13959
7.14987
7.16179
7.17497
7.18904
7.20367
7.21844
7.23295
7.24673
7.25914
7.2695
7.27717
7.28141
7.28135
7.27603
7.26462
7.24705
7.22577
7.20811
7.20694
7.23748
7.3069
7.40654
7.51446
7.60703
7.67068
7.70628
7.72393
7.73395
7.74106
7.74497
7.74497
7.7415
7.73341
8.21361
)
;
    }
    bottomWall
    {
        type            calculated;
        value           nonuniform List<scalar> 
400
(
10.5698
9.38883
9.04037
8.83063
8.66051
8.535
8.43517
8.35592
8.28958
8.23447
8.1871
8.14656
8.11109
8.08006
8.0526
8.0282
8.00625
7.98627
7.96774
7.95022
7.93324
7.91647
7.89966
7.8827
7.86558
7.84839
7.83133
7.81456
7.79827
7.78257
7.76757
7.75316
7.7392
7.72545
7.71154
7.69701
7.68137
7.66398
7.64423
7.62139
7.5947
7.56338
7.52651
7.48322
7.43245
7.37316
7.30407
7.224
7.13119
7.02436
6.90088
6.75968
6.59587
6.41021
6.19165
5.94801
5.64976
5.33033
4.89588
4.44534
3.72526
3.1274
1.97309
1.63271
2.51203
2.72774
3.75245
4.17471
4.74108
5.17613
5.53765
5.84258
6.10195
6.3266
6.52122
6.68737
6.83113
6.9584
7.07328
7.17841
7.27551
7.3658
7.4502
7.52943
7.60411
7.67472
7.7417
7.80544
7.86626
7.92445
7.98028
8.03401
8.08583
8.13597
8.18459
8.23186
8.27791
8.32292
8.36695
8.41011
8.45249
8.49408
8.53496
8.57515
8.61466
8.6535
8.69166
8.72916
8.76599
8.80215
8.83762
8.87243
8.90656
8.94003
8.97282
9.00498
9.03649
9.06737
9.09765
9.12732
9.15642
9.18494
9.21291
9.24034
9.26726
9.29369
9.31968
9.34529
9.37056
9.39556
9.4204
9.4451
9.46974
9.4944
9.51912
9.54398
9.56902
9.59431
9.61991
9.64586
9.67221
9.699
9.72625
9.75398
9.78224
9.81105
9.84045
9.87046
9.90109
9.93233
9.96423
9.99667
10.0297
10.0633
10.0974
10.1322
10.1678
10.2041
10.2412
10.2793
10.3188
10.3596
10.4018
10.4454
10.4905
10.5373
10.586
10.6368
10.6902
10.7462
10.8049
10.8664
10.9308
10.9984
11.0694
11.1444
11.2242
11.3099
11.4042
11.5041
11.6303
11.7618
11.9932
12.0343
12.7526
11.9395
8.18719
3.29459
4.35817
4.08912
4.43987
4.42549
4.64435
4.71633
4.85112
4.92955
5.02718
5.09792
5.16804
5.22238
5.27288
5.31497
5.35356
5.38666
5.41662
5.4434
5.46822
5.49004
5.50987
5.52762
5.54288
5.55558
5.56601
5.5758
5.5848
5.59119
5.59583
5.59908
5.60144
5.60376
5.60653
5.60893
5.61023
5.61007
5.60887
5.6073
5.60517
5.60184
5.59717
5.59171
5.58555
5.57834
5.57073
5.56227
5.55285
5.54263
5.5313
5.51928
5.50598
5.49199
5.47671
5.46074
5.44344
5.42567
5.40686
5.38722
5.36639
5.34462
5.32238
5.29853
5.27388
5.24867
5.22216
5.19498
5.16695
5.13746
5.10736
5.07663
5.04468
5.0123
4.9792
4.94444
4.90912
4.8741
4.83789
4.79984
4.76111
4.72251
4.68307
4.64213
4.60022
4.55832
4.51604
4.47253
4.42803
4.3833
4.33865
4.2933
4.24669
4.19961
4.15283
4.10603
4.05842
4.01
3.96144
3.91315
3.8647
3.81568
3.76601
3.71621
3.66671
3.61767
3.56896
3.52036
3.47174
3.42316
3.37478
3.32666
3.27878
3.23109
3.18341
3.17614
3.17405
3.17144
3.16824
3.16438
3.15968
3.15412
3.14744
3.13987
3.13095
3.12129
3.11032
3.09925
3.08608
3.0735
3.05784
3.04453
3.02584
3.01275
2.98937
2.97833
2.94759
2.94249
2.90698
2.89667
2.83957
2.8329
2.76483
2.77063
2.67396
2.69916
2.53372
2.55605
2.22403
2.87651
3.37748
3.45688
3.74219
3.84182
4.04703
4.16731
4.33486
4.46483
4.6144
4.74697
4.88633
5.01689
5.14792
5.27243
5.39404
5.51013
5.62201
5.7289
5.83159
5.92962
6.0229
6.11095
6.19387
6.27203
6.346
6.41496
6.4714
6.52416
6.57495
6.62385
6.67092
6.71602
6.75898
6.79969
6.83859
6.87626
6.91278
6.94749
6.9797
7.00935
7.03735
7.06471
7.09183
7.11882
7.14633
7.17682
7.21684
7.27942
7.38076
7.52694
7.69975
7.8567
7.95118
7.96245
7.91493
7.8568
7.81826
7.79551
7.77229
7.7462
7.72688
7.72302
7.7211
8.21525
)
;
    }
    defaultFaces
    {
        type            empty;
    }
}


// ************************************************************************* //
