/*--------------------------------*- C++ -*----------------------------------*\
| =========                 |                                                 |
| \\      /  F ield         | OpenFOAM: The Open Source CFD Toolbox           |
|  \\    /   O peration     | Version:  v1906                                 |
|   \\  /    A nd           | Web:      www.OpenFOAM.com                      |
|    \\/     M anipulation  |                                                 |
\*---------------------------------------------------------------------------*/
FoamFile
{
    version     2.0;
    format      ascii;
    class       volScalarField;
    location    "0";
    object      yPlus;
}
// * * * * * * * * * * * * * * * * * * * * * * * * * * * * * * * * * * * * * //

dimensions      [0 0 0 0 0 0 0];


internalField   uniform 0;

boundaryField
{
    inlet
    {
        type            calculated;
        value           uniform 0;
    }
    outlet
    {
        type            calculated;
        value           uniform 0;
    }
    topWall
    {
        type            calculated;
        value           nonuniform List<scalar> 
400
(
0.558916
0.558916
0.558916
0.558916
0.558916
0.558916
0.558916
0.558916
0.558916
0.558916
0.558916
0.558916
0.558916
0.558916
0.558916
0.558916
0.558916
0.558916
0.558916
0.558916
0.558916
0.558916
0.558916
0.558916
0.558916
0.558916
0.558916
0.558916
0.558916
0.558916
0.558916
0.558916
0.558916
0.558916
0.558916
0.558916
0.558916
0.558916
0.558916
0.558916
0.558916
0.558916
0.558916
0.558916
0.558916
0.558916
0.558916
0.558916
0.558916
0.558916
0.558916
0.558916
0.558916
0.558916
0.558916
0.558916
0.558916
0.558916
0.558916
0.558916
0.558916
0.558916
0.558916
0.558916
0.558916
0.556939
0.553019
0.549173
0.545401
0.541702
0.538073
0.534514
0.531023
0.527599
0.524241
0.520947
0.517716
0.514547
0.511438
0.50839
0.505399
0.502466
0.49959
0.496768
0.494
0.491286
0.488623
0.486012
0.48345
0.480938
0.478474
0.476057
0.473686
0.471361
0.46908
0.466843
0.464649
0.462497
0.460386
0.458316
0.456285
0.454294
0.45234
0.450424
0.448544
0.446701
0.444893
0.443119
0.44138
0.439674
0.438
0.436359
0.434749
0.43317
0.431621
0.430102
0.428612
0.427151
0.425717
0.424311
0.422932
0.42158
0.420253
0.418952
0.417675
0.416424
0.415196
0.413991
0.41281
0.411651
0.410515
0.4094
0.408307
0.407235
0.406183
0.405151
0.404139
0.403147
0.402174
0.401219
0.400282
0.399364
0.398463
0.397579
0.396712
0.395862
0.395028
0.39421
0.393408
0.392621
0.39185
0.391093
0.39035
0.389622
0.388908
0.388207
0.38752
0.386846
0.386185
0.385537
0.384901
0.384277
0.383665
0.383065
0.382476
0.381899
0.381333
0.380777
0.380233
0.379698
0.379174
0.37866
0.378156
0.377661
0.377176
0.376701
0.376234
0.375776
0.375327
0.374887
0.374455
0.374031
0.373616
0.373208
0.372809
0.372795
0.373166
0.373542
0.373923
0.374309
0.374701
0.375099
0.375502
0.375911
0.376325
0.376746
0.377172
0.377604
0.378042
0.378487
0.378937
0.379395
0.379858
0.380328
0.380805
0.381288
0.381778
0.382275
0.382779
0.38329
0.383808
0.384334
0.384866
0.385407
0.385955
0.38651
0.387074
0.387645
0.388225
0.388812
0.389408
0.390012
0.390625
0.391246
0.391876
0.392515
0.393163
0.39382
0.394486
0.395162
0.395847
0.396542
0.397246
0.39796
0.398685
0.399419
0.400164
0.40092
0.401686
0.402462
0.40325
0.404049
0.404859
0.40568
0.406513
0.407358
0.408214
0.409082
0.409963
0.410856
0.411762
0.41268
0.413611
0.414556
0.415513
0.416485
0.417469
0.418468
0.41948
0.420507
0.421549
0.422604
0.423675
0.424761
0.425862
0.426978
0.428111
0.429259
0.430423
0.431604
0.432801
0.434015
0.435246
0.436494
0.43776
0.439044
0.440346
0.441666
0.443005
0.444362
0.445739
0.447134
0.44855
0.449985
0.451441
0.452917
0.454414
0.455931
0.45747
0.459031
0.460614
0.462219
0.463846
0.465497
0.46717
0.468867
0.470588
0.472333
0.474103
0.475897
0.477717
0.479562
0.481433
0.483331
0.485255
0.487206
0.489185
0.491191
0.493226
0.495289
0.497382
0.499503
0.501655
0.503836
0.506049
0.508292
0.510567
0.512874
0.515213
0.517586
0.519991
0.522431
0.524904
0.527413
0.529956
0.532536
0.535152
0.537804
0.540494
0.543221
0.545987
0.548792
0.551636
0.55452
0.557445
0.558916
0.558916
0.558916
0.558916
0.558916
0.558916
0.558916
0.558916
0.558916
0.558916
0.558916
0.558916
0.558916
0.558916
0.558916
0.558916
0.558916
0.558916
0.558916
0.558916
0.558916
0.558916
0.558916
0.558916
0.558916
0.558916
0.558916
0.558916
0.558916
0.558916
0.558916
0.558916
0.558916
0.558916
0.558916
0.558916
0.558916
0.558916
0.558916
0.558916
0.558916
0.558916
0.558916
0.558916
0.558916
0.558916
0.558916
0.558916
0.558916
0.558916
0.558916
0.558916
0.558916
0.558916
0.558916
0.558916
0.558916
0.558916
0.558916
0.558916
0.558916
0.558916
0.558916
0.558916
0.558916
)
;
    }
    bottomWall
    {
        type            calculated;
        value           nonuniform List<scalar> 
400
(
0.558916
0.558916
0.558916
0.558916
0.558916
0.558916
0.558916
0.558916
0.558916
0.558916
0.558916
0.558916
0.558916
0.558916
0.558916
0.558916
0.558916
0.558916
0.558916
0.558916
0.558916
0.558916
0.558916
0.558916
0.558916
0.558916
0.558916
0.558916
0.558916
0.558916
0.558916
0.558916
0.558916
0.558916
0.558916
0.558916
0.558916
0.558916
0.558916
0.558916
0.558916
0.558916
0.558916
0.558916
0.558916
0.558916
0.558916
0.558916
0.558916
0.558916
0.558916
0.558916
0.558916
0.558916
0.558916
0.558916
0.558916
0.558916
0.558916
0.558916
0.558916
0.558916
0.558916
0.558916
0.558916
0.515522
0.511893
0.508334
0.504842
0.501418
0.498059
0.494765
0.491533
0.488364
0.485255
0.482206
0.479216
0.476282
0.473405
0.470583
0.467815
0.4651
0.462438
0.459826
0.457264
0.454751
0.452287
0.44987
0.447499
0.445173
0.442892
0.440655
0.43846
0.436308
0.434197
0.432126
0.430096
0.428103
0.42615
0.424233
0.422354
0.42051
0.418702
0.416928
0.415188
0.413482
0.411808
0.410167
0.408557
0.406977
0.405428
0.403909
0.402419
0.400957
0.399524
0.398118
0.396738
0.395386
0.394059
0.392757
0.391481
0.390229
0.389001
0.387796
0.386615
0.385456
0.38432
0.383205
0.382111
0.381039
0.379987
0.378955
0.377943
0.376951
0.375977
0.375022
0.374086
0.373167
0.372266
0.371382
0.370515
0.369665
0.368831
0.368013
0.367211
0.366424
0.365652
0.364895
0.364152
0.363424
0.36271
0.362009
0.361322
0.360648
0.359987
0.359338
0.358702
0.358078
0.357466
0.356866
0.356277
0.3557
0.355134
0.354578
0.354033
0.353499
0.352975
0.352461
0.351956
0.351462
0.350977
0.350501
0.350034
0.349577
0.349128
0.348687
0.348255
0.347832
0.347416
0.347008
0.346609
0.346217
0.345832
0.345455
0.345085
0.369075
0.369442
0.369815
0.370192
0.370575
0.370963
0.371356
0.371755
0.37216
0.37257
0.372987
0.373409
0.373836
0.37427
0.37471
0.375157
0.375609
0.376068
0.376533
0.377005
0.377484
0.377969
0.378461
0.37896
0.379466
0.379979
0.380499
0.381027
0.381562
0.382104
0.382654
0.383212
0.383778
0.384351
0.384933
0.385523
0.386121
0.386728
0.387343
0.387966
0.388599
0.38924
0.389891
0.39055
0.391219
0.391897
0.392585
0.393283
0.39399
0.394707
0.395434
0.396172
0.396919
0.397678
0.398447
0.399227
0.400017
0.400819
0.401632
0.402457
0.403293
0.404141
0.405001
0.405873
0.406757
0.407654
0.408563
0.409485
0.41042
0.411368
0.412329
0.413304
0.414293
0.415295
0.416312
0.417343
0.418388
0.419448
0.420523
0.421613
0.422718
0.423839
0.424976
0.426129
0.427297
0.428483
0.429685
0.430903
0.432139
0.433393
0.434664
0.435952
0.437259
0.438585
0.439928
0.441291
0.442673
0.444075
0.445496
0.446937
0.448398
0.44988
0.451382
0.452906
0.454451
0.456018
0.457607
0.459218
0.460852
0.462509
0.464189
0.465893
0.467621
0.469372
0.471149
0.472951
0.474777
0.47663
0.478509
0.480414
0.482345
0.484304
0.486291
0.488305
0.490348
0.492419
0.494519
0.496649
0.498809
0.501
0.503221
0.505473
0.507757
0.510073
0.512422
0.514803
0.517218
0.519667
0.522151
0.524669
0.527223
0.529812
0.532438
0.535101
0.537801
0.54054
0.543316
0.546132
0.548988
0.551883
0.558916
0.558916
0.558916
0.558916
0.558916
0.558916
0.558916
0.558916
0.558916
0.558916
0.558916
0.558916
0.558916
0.558916
0.558916
0.558916
0.558916
0.558916
0.558916
0.558916
0.558916
0.558916
0.558916
0.558916
0.558916
0.558916
0.558916
0.558916
0.558916
0.558916
0.558916
0.558916
0.558916
0.558916
0.558916
0.558916
0.558916
0.558916
0.558916
0.558916
0.558916
0.558916
0.558916
0.558916
0.558916
0.558916
0.558916
0.558916
0.558916
0.558916
0.558916
0.558916
0.558916
0.558916
0.558916
0.558916
0.558916
0.558916
0.558916
0.558916
0.558916
0.558916
0.558916
0.558916
0.558916
)
;
    }
    defaultFaces
    {
        type            empty;
    }
}


// ************************************************************************* //
